<?xml version="1.0" encoding="ISO-8859-1"?>
<modeling>
 <generator>
  <i name="program" type="string">vasp </i>
  <i name="version" type="string">5.3.5  </i>
  <i name="subversion" type="string">31Mar14 (build Dec 15 2017 19:57:15) complex                          parallel </i>
  <i name="platform" type="string">LinuxIFC </i>
  <i name="date" type="string">2019 06 19 </i>
  <i name="time" type="string">23:37:35 </i>
 </generator>
 <incar>
  <i type="string" name="PREC">accurate</i>
  <i type="string" name="ALGO"> Fast</i>
  <i type="int" name="ISPIN">     2</i>
  <i type="int" name="ICHARG">     1</i>
  <i type="int" name="NELM">   100</i>
  <i type="int" name="IBRION">     2</i>
  <i name="EDIFF">      0.00000100</i>
  <i type="int" name="NSW">    99</i>
  <i type="int" name="ISIF">     3</i>
  <i name="ENCUT">    520.00000000</i>
  <v name="MAGMOM">      0.60000000      0.60000000      0.60000000</v>
  <i type="string" name="LREAL"> Auto</i>
  <i type="int" name="ISMEAR">     0</i>
  <i name="SIGMA">      0.05000000</i>
  <i type="logical" name="LWAVE"> F  </i>
  <i type="logical" name="LORBIT"> F  </i>
  <i type="int" name="NELM">   100</i>
 </incar>
 <kpoints>
  <generation param="Gamma">
   <v type="int" name="divisions">       8        8        7 </v>
   <v name="usershift">      0.00000000       0.00000000       0.00000000 </v>
   <v name="genvec1">      0.12500000      -0.00000000       0.00000000 </v>
   <v name="genvec2">      0.00000000       0.12500000       0.00000000 </v>
   <v name="genvec3">      0.00000000       0.00000000       0.14285714 </v>
   <v name="shift">      0.00000000       0.00000000       0.00000000 </v>
  </generation>
  <varray name="kpointlist" >
   <v>       0.00000000       0.00000000       0.00000000 </v>
   <v>       0.12500000       0.00000000       0.00000000 </v>
   <v>       0.25000000       0.00000000       0.00000000 </v>
   <v>       0.37500000       0.00000000       0.00000000 </v>
   <v>       0.50000000       0.00000000       0.00000000 </v>
   <v>       0.12500000       0.12500000       0.00000000 </v>
   <v>       0.25000000       0.12500000       0.00000000 </v>
   <v>       0.37500000       0.12500000       0.00000000 </v>
   <v>       0.25000000       0.25000000       0.00000000 </v>
   <v>       0.37500000       0.25000000       0.00000000 </v>
   <v>       0.00000000       0.00000000       0.14285714 </v>
   <v>       0.12500000       0.00000000       0.14285714 </v>
   <v>       0.25000000       0.00000000       0.14285714 </v>
   <v>       0.37500000       0.00000000       0.14285714 </v>
   <v>       0.50000000       0.00000000       0.14285714 </v>
   <v>       0.12500000       0.12500000       0.14285714 </v>
   <v>       0.25000000       0.12500000       0.14285714 </v>
   <v>       0.37500000       0.12500000       0.14285714 </v>
   <v>       0.25000000       0.25000000       0.14285714 </v>
   <v>       0.37500000       0.25000000       0.14285714 </v>
   <v>       0.00000000       0.00000000       0.28571429 </v>
   <v>       0.12500000       0.00000000       0.28571429 </v>
   <v>       0.25000000       0.00000000       0.28571429 </v>
   <v>       0.37500000       0.00000000       0.28571429 </v>
   <v>       0.50000000       0.00000000       0.28571429 </v>
   <v>       0.12500000       0.12500000       0.28571429 </v>
   <v>       0.25000000       0.12500000       0.28571429 </v>
   <v>       0.37500000       0.12500000       0.28571429 </v>
   <v>       0.25000000       0.25000000       0.28571429 </v>
   <v>       0.37500000       0.25000000       0.28571429 </v>
   <v>       0.00000000       0.00000000       0.42857143 </v>
   <v>       0.12500000       0.00000000       0.42857143 </v>
   <v>       0.25000000       0.00000000       0.42857143 </v>
   <v>       0.37500000       0.00000000       0.42857143 </v>
   <v>       0.50000000       0.00000000       0.42857143 </v>
   <v>       0.12500000       0.12500000       0.42857143 </v>
   <v>       0.25000000       0.12500000       0.42857143 </v>
   <v>       0.37500000       0.12500000       0.42857143 </v>
   <v>       0.25000000       0.25000000       0.42857143 </v>
   <v>       0.37500000       0.25000000       0.42857143 </v>
  </varray>
  <varray name="weights" >
   <v>       0.00223214 </v>
   <v>       0.01339286 </v>
   <v>       0.01339286 </v>
   <v>       0.01339286 </v>
   <v>       0.00669643 </v>
   <v>       0.01339286 </v>
   <v>       0.02678571 </v>
   <v>       0.02678571 </v>
   <v>       0.01339286 </v>
   <v>       0.01339286 </v>
   <v>       0.00446429 </v>
   <v>       0.02678571 </v>
   <v>       0.02678571 </v>
   <v>       0.02678571 </v>
   <v>       0.01339286 </v>
   <v>       0.02678571 </v>
   <v>       0.05357143 </v>
   <v>       0.05357143 </v>
   <v>       0.02678571 </v>
   <v>       0.02678571 </v>
   <v>       0.00446429 </v>
   <v>       0.02678571 </v>
   <v>       0.02678571 </v>
   <v>       0.02678571 </v>
   <v>       0.01339286 </v>
   <v>       0.02678571 </v>
   <v>       0.05357143 </v>
   <v>       0.05357143 </v>
   <v>       0.02678571 </v>
   <v>       0.02678571 </v>
   <v>       0.00446429 </v>
   <v>       0.02678571 </v>
   <v>       0.02678571 </v>
   <v>       0.02678571 </v>
   <v>       0.01339286 </v>
   <v>       0.02678571 </v>
   <v>       0.05357143 </v>
   <v>       0.05357143 </v>
   <v>       0.02678571 </v>
   <v>       0.02678571 </v>
  </varray>
 </kpoints>
 <parameters>
  <separator name="general" >
   <i type="string" name="SYSTEM">unknown system</i>
   <i type="logical" name="LCOMPAT"> F  </i>
  </separator>
  <separator name="electronic" >
   <i type="string" name="PREC">accura</i>
   <i name="ENMAX">    520.00000000</i>
   <i name="ENAUG">    758.78000000</i>
   <i name="EDIFF">      0.00000100</i>
   <i type="int" name="IALGO">    68</i>
   <i type="int" name="IWAVPR">    11</i>
   <i type="int" name="NBANDS">    64</i>
   <i name="NELECT">     14.00000000</i>
   <i type="int" name="TURBO">     0</i>
   <i type="int" name="IRESTART">     0</i>
   <i type="int" name="NREBOOT">     0</i>
   <i type="int" name="NMIN">     0</i>
   <i name="EREF">      0.00000000</i>
   <separator name="electronic smearing" >
    <i type="int" name="ISMEAR">     0</i>
    <i name="SIGMA">      0.05000000</i>
    <i name="KSPACING">      0.50000000</i>
    <i type="logical" name="KGAMMA"> T  </i>
   </separator>
   <separator name="electronic projectors" >
    <i type="logical" name="LREAL"> T  </i>
    <v name="ROPT">     -0.00025000     -0.00025000</v>
    <i type="int" name="LMAXPAW">  -100</i>
    <i type="int" name="LMAXMIX">     2</i>
    <i type="logical" name="NLSPLINE"> F  </i>
   </separator>
   <separator name="electronic startup" >
    <i type="int" name="ISTART">     0</i>
    <i type="int" name="ICHARG">     1</i>
    <i type="int" name="INIWAV">     1</i>
   </separator>
   <separator name="electronic spin" >
    <i type="int" name="ISPIN">     2</i>
    <i type="logical" name="LNONCOLLINEAR"> F  </i>
    <v name="MAGMOM">      0.60000000      0.60000000      0.60000000</v>
    <i name="NUPDOWN">     -1.00000000</i>
    <i type="logical" name="LSORBIT"> F  </i>
    <v name="SAXIS">      0.00000000      0.00000000      1.00000000</v>
    <i type="logical" name="LSPIRAL"> F  </i>
    <v name="QSPIRAL">      0.00000000      0.00000000      0.00000000</v>
    <i type="logical" name="LZEROZ"> F  </i>
   </separator>
   <separator name="electronic exchange-correlation" >
    <i type="logical" name="LASPH"> F  </i>
    <i type="logical" name="LMETAGGA"> F  </i>
   </separator>
   <separator name="electronic convergence" >
    <i type="int" name="NELM">   100</i>
    <i type="int" name="NELMDL">    -5</i>
    <i type="int" name="NELMIN">     2</i>
    <i name="ENINI">    520.00000000</i>
    <separator name="electronic convergence detail" >
     <i type="logical" name="LDIAG"> T  </i>
     <i type="logical" name="LSUBROT"> F  </i>
     <i name="WEIMIN">      0.00100000</i>
     <i name="EBREAK">      0.00000000</i>
     <i name="DEPER">      0.30000000</i>
     <i type="int" name="NRMM">     4</i>
     <i name="TIME">      0.40000000</i>
    </separator>
   </separator>
   <separator name="electronic mixer" >
    <i name="AMIX">      0.40000000</i>
    <i name="BMIX">      1.00000000</i>
    <i name="AMIN">      0.10000000</i>
    <i name="AMIX_MAG">      1.60000000</i>
    <i name="BMIX_MAG">      1.00000000</i>
    <separator name="electronic mixer details" >
     <i type="int" name="IMIX">     4</i>
     <i type="int" name="MAXMIX">   -45</i>
     <i name="WC">    100.00000000</i>
     <i type="int" name="INIMIX">     1</i>
     <i type="int" name="MIXPRE">     1</i>
     <i type="int" name="MREMOVE">     5</i>
    </separator>
   </separator>
   <separator name="electronic dipolcorrection" >
    <i type="logical" name="LDIPOL"> F  </i>
    <i type="logical" name="LMONO"> F  </i>
    <i type="int" name="IDIPOL">     0</i>
    <i name="EPSILON">      1.00000000</i>
    <v name="DIPOL">   -100.00000000   -100.00000000   -100.00000000</v>
    <i name="EFIELD">      0.00000000</i>
   </separator>
  </separator>
  <separator name="grids" >
   <i type="int" name="NGX">    24</i>
   <i type="int" name="NGY">    24</i>
   <i type="int" name="NGZ">    28</i>
   <i type="int" name="NGXF">    48</i>
   <i type="int" name="NGYF">    48</i>
   <i type="int" name="NGZF">    56</i>
   <i type="logical" name="ADDGRID"> F  </i>
  </separator>
  <separator name="ionic" >
   <i type="int" name="NSW">    99</i>
   <i type="int" name="IBRION">     2</i>
   <i type="int" name="ISIF">     3</i>
   <i name="PSTRESS">      0.00000000</i>
   <i name="EDIFFG">      0.00001000</i>
   <i type="int" name="NFREE">     1</i>
   <i name="POTIM">      0.50000000</i>
   <i name="SMASS">     -3.00000000</i>
   <i name="SCALEE">      1.00000000</i>
  </separator>
  <separator name="ionic md" >
   <i name="TEBEG">      0.00010000</i>
   <i name="TEEND">      0.00010000</i>
   <i type="int" name="NBLOCK">     1</i>
   <i type="int" name="KBLOCK">    99</i>
   <i type="int" name="NPACO">   256</i>
   <i name="APACO">     16.00000000</i>
  </separator>
  <separator name="symmetry" >
   <i type="int" name="ISYM">     2</i>
   <i name="SYMPREC">      0.00001000</i>
  </separator>
  <separator name="dos" >
   <i type="logical" name="LORBIT"> F  </i>
   <v name="RWIGS">     -1.00000000     -1.00000000</v>
   <i type="int" name="NEDOS">   301</i>
   <i name="EMIN">     10.00000000</i>
   <i name="EMAX">    -10.00000000</i>
   <i name="EFERMI">      0.00000000</i>
  </separator>
  <separator name="writing" >
   <i type="int" name="NWRITE">     2</i>
   <i type="logical" name="LWAVE"> F  </i>
   <i type="logical" name="LCHARG"> T  </i>
   <i type="logical" name="LPARD"> F  </i>
   <i type="logical" name="LVTOT"> F  </i>
   <i type="logical" name="LVHAR"> F  </i>
   <i type="logical" name="LELF"> F  </i>
   <i type="logical" name="LOPTICS"> F  </i>
   <v name="STM">      0.00000000      0.00000000      0.00000000      0.00000000      0.00000000      0.00000000      0.00000000</v>
  </separator>
  <separator name="performance" >
   <i type="int" name="NPAR">    64</i>
   <i type="int" name="NSIM">     4</i>
   <i type="int" name="NBLK">    -1</i>
   <i type="logical" name="LPLANE"> T  </i>
   <i type="logical" name="LSCALAPACK"> T  </i>
   <i type="logical" name="LSCAAWARE"> T  </i>
   <i type="logical" name="LSCALU"> F  </i>
   <i type="logical" name="LASYNC"> F  </i>
   <i type="logical" name="LORBITALREAL"> F  </i>
  </separator>
  <separator name="miscellaneous" >
   <i type="int" name="IDIOT">     3</i>
   <i type="logical" name="LMUSIC"> F  </i>
   <v name="POMASS">     24.30500000     10.81100000</v>
   <v name="DARWINR">      0.00000000      0.00000000</v>
   <v name="DARWINV">      1.00000000      1.00000000</v>
   <i type="logical" name="LCORR"> T  </i>
  </separator>
  <i type="logical" name="GGA_COMPAT"> T  </i>
  <i type="logical" name="LBERRY"> F  </i>
  <i type="int" name="ICORELEVEL">     0</i>
  <i type="logical" name="LDAU"> F  </i>
  <i type="int" name="I_CONSTRAINED_M">     0</i>
  <separator name="electronic exchange-correlation" >
   <i type="string" name="GGA">--</i>
   <i type="int" name="VOSKOWN">     0</i>
   <i type="logical" name="LHFCALC"> F  </i>
   <i type="string" name="PRECFOCK"></i>
   <i type="logical" name="LSYMGRAD"> F  </i>
   <i type="logical" name="LHFONE"> F  </i>
   <i type="logical" name="LRHFCALC"> F  </i>
   <i type="logical" name="LTHOMAS"> F  </i>
   <i type="logical" name="LMODELHF"> F  </i>
   <i name="ENCUT4O">     -1.00000000</i>
   <i type="int" name="EXXOEP">     0</i>
   <i type="int" name="FOURORBIT">     0</i>
   <i name="AEXX">      0.00000000</i>
   <i name="HFALPHA">      0.00000000</i>
   <i name="MCALPHA">      0.00000000</i>
   <i name="ALDAX">      1.00000000</i>
   <i name="AGGAX">      1.00000000</i>
   <i name="ALDAC">      1.00000000</i>
   <i name="AGGAC">      1.00000000</i>
   <i type="int" name="NKREDX">     1</i>
   <i type="int" name="NKREDY">     1</i>
   <i type="int" name="NKREDZ">     1</i>
   <i type="logical" name="SHIFTRED"> F  </i>
   <i type="logical" name="ODDONLY"> F  </i>
   <i type="logical" name="EVENONLY"> F  </i>
   <i type="int" name="LMAXFOCK">     0</i>
   <i type="int" name="NMAXFOCKAE">     0</i>
   <i type="logical" name="LFOCKAEDFT"> F  </i>
   <i name="HFSCREEN">      0.00000000</i>
   <i name="HFSCREENC">      0.00000000</i>
   <i type="int" name="NBANDSGWLOW">     0</i>
  </separator>
  <separator name="vdW DFT" >
   <i type="logical" name="LUSE_VDW"> F  </i>
   <i name="Zab_VDW">     -0.84910000</i>
   <i name="PARAM1">      0.12340000</i>
   <i name="PARAM2">      1.00000000</i>
   <i name="PARAM3">      0.00000000</i>
  </separator>
  <separator name="model GW" >
   <i type="int" name="MODEL_GW">     0</i>
   <i name="MODEL_EPS0">      5.78345673</i>
   <i name="MODEL_ALPHA">      1.00000000</i>
  </separator>
  <separator name="linear response parameters" >
   <i type="logical" name="LEPSILON"> F  </i>
   <i type="logical" name="LRPA"> F  </i>
   <i type="logical" name="LNABLA"> F  </i>
   <i type="logical" name="LVEL"> F  </i>
   <i type="int" name="KINTER">     0</i>
   <i name="CSHIFT">      0.10000000</i>
   <i name="OMEGAMAX">     -1.00000000</i>
   <i name="DEG_THRESHOLD">      0.00200000</i>
  </separator>
  <separator name="orbital magnetization" >
   <i type="logical" name="NUCIND"> F  </i>
   <v name="MAGPOS">      0.00000000      0.00000000      0.00000000</v>
   <i type="logical" name="LNICSALL"> T  </i>
   <i type="logical" name="ORBITALMAG"> F  </i>
   <i type="logical" name="LMAGBLOCH"> F  </i>
   <i type="logical" name="LCHIMAG"> F  </i>
   <i type="logical" name="LGAUGE"> T  </i>
   <i type="int" name="MAGATOM">     0</i>
   <v name="MAGDIPOL">      0.00000000      0.00000000      0.00000000</v>
   <v name="AVECCONST">      0.00000000      0.00000000      0.00000000</v>
  </separator>
  <separator name="response functions" >
   <i type="logical" name="LADDER"> F  </i>
   <i type="logical" name="LFXC"> F  </i>
   <i type="logical" name="LHARTREE"> T  </i>
   <i type="int" name="IBSE">     0</i>
   <i type="logical" name="LTCTE"> F  </i>
   <i type="logical" name="LTETE"> F  </i>
   <i type="logical" name="LTRIPLET"> F  </i>
   <i type="logical" name="LFXCEPS"> F  </i>
   <i type="logical" name="LFXHEG"> F  </i>
   <i type="logical" name="L2ORDER"> F  </i>
   <i type="logical" name="LUSEW"> F  </i>
   <i name="ENCUTGW">     -2.00000000</i>
   <i name="ENCUTGWSOFT">     -2.00000000</i>
   <i name="ENCUTLF">     -1.00000000</i>
   <i type="int" name="LMAXMP2">    -1</i>
   <i name="SCISSOR">      0.00000000</i>
   <i type="int" name="NOMEGA">     0</i>
   <i type="int" name="NOMEGAR">     0</i>
   <i type="int" name="NBANDSGW">    -1</i>
   <i type="int" name="NBANDSO">    -1</i>
   <i type="int" name="NBANDSV">    -1</i>
   <i type="int" name="NELM">   100</i>
   <i type="int" name="DIM">     3</i>
   <i type="int" name="ANTIRES">     0</i>
   <i name="OMEGAMAX">    -30.00000000</i>
   <i name="OMEGAMIN">    -30.00000000</i>
   <i name="OMEGATL">   -200.00000000</i>
   <i type="int" name="OMEGAGRID">     0</i>
   <i name="CSHIFT">     -0.10000000</i>
   <i type="logical" name="SELFENERGY"> F  </i>
   <i type="logical" name="LSPECTRAL"> F  </i>
   <i type="logical" name="ODDONLYGW"> F  </i>
   <i type="logical" name="EVENONLYGW"> F  </i>
   <i type="int" name="NKREDLFX">     1</i>
   <i type="int" name="NKREDLFY">     1</i>
   <i type="int" name="NKREDLFZ">     1</i>
   <i type="int" name="MAXMEM">  1800</i>
   <i type="int" name="TELESCOPE">     0</i>
   <i type="int" name="TAUPAR">     1</i>
  </separator>
  <separator name="External order field" >
   <i name="OFIELD_KAPPA">      0.00000000</i>
   <v name="OFIELD_K">      0.00000000      0.00000000      0.00000000</v>
   <i name="OFIELD_Q6_NEAR">      0.00000000</i>
   <i name="OFIELD_Q6_FAR">      0.00000000</i>
   <i name="OFIELD_A">      0.00000000</i>
  </separator>
 </parameters>
 <atominfo>
  <atoms>       3 </atoms>
  <types>       2 </types>
  <array name="atoms" >
   <dimension dim="1">ion</dimension>
   <field type="string">element</field>
   <field type="int">atomtype</field>
   <set>
    <rc><c>Mg</c><c>   1</c></rc>
    <rc><c>B </c><c>   2</c></rc>
    <rc><c>B </c><c>   2</c></rc>
   </set>
  </array>
  <array name="atomtypes" >
   <dimension dim="1">type</dimension>
   <field type="int">atomspertype</field>
   <field type="string">element</field>
   <field>mass</field>
   <field>valence</field>
   <field type="string">pseudopotential</field>
   <set>
    <rc><c>   1</c><c>Mg</c><c>     24.30500000</c><c>      8.00000000</c><c>  PAW_PBE Mg_pv 13Apr2007               </c></rc>
    <rc><c>   2</c><c>B </c><c>     10.81100000</c><c>      3.00000000</c><c>  PAW_PBE B 06Sep2000                   </c></rc>
   </set>
  </array>
 </atominfo>
 <structure name="initialpos" >
  <crystal>
   <varray name="basis" >
    <v>       3.07368000       0.00000000       0.00000000 </v>
    <v>      -1.53684000       2.66188500       0.00000000 </v>
    <v>       0.00000000       0.00000000       3.53435000 </v>
   </varray>
   <i name="volume">     28.91728364 </i>
   <varray name="rec_basis" >
    <v>       0.32534291       0.18783681       0.00000000 </v>
    <v>       0.00000000       0.37567363       0.00000000 </v>
    <v>       0.00000000       0.00000000       0.28293746 </v>
   </varray>
  </crystal>
  <varray name="positions" >
   <v>       0.00000000       0.00000000       0.00000000 </v>
   <v>       0.33333300       0.66666700       0.50000000 </v>
   <v>       0.66666700       0.33333300       0.50000000 </v>
  </varray>
 </structure>
 <calculation>
  <scstep>
   <time name="dav">    4.19    4.20</time>
   <time name="total">    4.22    4.24</time>
   <energy>
    <i name="alphaZ">     55.91533244 </i>
    <i name="ewald">   -724.35133889 </i>
    <i name="hartreedc">   -256.88841616 </i>
    <i name="XCdc">     41.20269513 </i>
    <i name="pawpsdc">    735.78569640 </i>
    <i name="pawaedc">   -852.01880380 </i>
    <i name="eentropy">     -0.00021524 </i>
    <i name="bandstr">   -208.50263655 </i>
    <i name="atom">   1199.03881054 </i>
    <i name="e_fr_energy">     -9.81887614 </i>
    <i name="e_wo_entrp">     -9.81866090 </i>
    <i name="e_0_energy">     -9.81876852 </i>
   </energy>
  </scstep>
  <scstep>
   <time name="dav">    7.08    7.08</time>
   <time name="total">    7.09    7.09</time>
   <energy>
    <i name="e_fr_energy">    -16.65560994 </i>
    <i name="e_wo_entrp">    -16.65419846 </i>
    <i name="e_0_energy">    -16.65490420 </i>
   </energy>
  </scstep>
  <scstep>
   <time name="dav">    4.04    4.04</time>
   <time name="total">    4.05    4.05</time>
   <energy>
    <i name="e_fr_energy">    -16.65699156 </i>
    <i name="e_wo_entrp">    -16.65558042 </i>
    <i name="e_0_energy">    -16.65628599 </i>
   </energy>
  </scstep>
  <scstep>
   <time name="dav">   10.82   10.82</time>
   <time name="total">   10.82   10.83</time>
   <energy>
    <i name="e_fr_energy">    -16.65699167 </i>
    <i name="e_wo_entrp">    -16.65558053 </i>
    <i name="e_0_energy">    -16.65628610 </i>
   </energy>
  </scstep>
  <scstep>
   <time name="dav">    4.08    4.08</time>
   <time name="total">    4.12    4.12</time>
   <energy>
    <i name="e_fr_energy">    -16.65699167 </i>
    <i name="e_wo_entrp">    -16.65558053 </i>
    <i name="e_0_energy">    -16.65628610 </i>
   </energy>
  </scstep>
  <scstep>
   <time name="diag">    0.68    0.68</time>
   <time name="diis">    0.37    0.38</time>
   <time name="orth">    0.15    0.15</time>
   <time name="total">    1.26    1.28</time>
   <energy>
    <i name="e_fr_energy">    -15.52859319 </i>
    <i name="e_wo_entrp">    -15.52746012 </i>
    <i name="e_0_energy">    -15.52802665 </i>
   </energy>
  </scstep>
  <scstep>
   <time name="diag">    0.67    0.67</time>
   <time name="diis">    0.31    0.31</time>
   <time name="orth">    0.15    0.15</time>
   <time name="total">    1.20    1.20</time>
   <energy>
    <i name="e_fr_energy">    -15.27177278 </i>
    <i name="e_wo_entrp">    -15.27017481 </i>
    <i name="e_0_energy">    -15.27097380 </i>
   </energy>
  </scstep>
  <scstep>
   <time name="diag">    0.67    0.67</time>
   <time name="diis">    0.32    0.32</time>
   <time name="orth">    0.14    0.14</time>
   <time name="total">    1.19    1.20</time>
   <energy>
    <i name="e_fr_energy">    -15.29107062 </i>
    <i name="e_wo_entrp">    -15.28873211 </i>
    <i name="e_0_energy">    -15.28990137 </i>
   </energy>
  </scstep>
  <scstep>
   <time name="diag">    0.67    0.67</time>
   <time name="diis">    0.32    0.32</time>
   <time name="orth">    0.15    0.15</time>
   <time name="total">    1.19    1.19</time>
   <energy>
    <i name="e_fr_energy">    -15.28988247 </i>
    <i name="e_wo_entrp">    -15.28791568 </i>
    <i name="e_0_energy">    -15.28889908 </i>
   </energy>
  </scstep>
  <scstep>
   <time name="diag">    0.67    0.67</time>
   <time name="diis">    0.35    0.35</time>
   <time name="orth">    0.14    0.14</time>
   <time name="total">    1.22    1.22</time>
   <energy>
    <i name="e_fr_energy">    -15.28992686 </i>
    <i name="e_wo_entrp">    -15.28785699 </i>
    <i name="e_0_energy">    -15.28889193 </i>
   </energy>
  </scstep>
  <scstep>
   <time name="diag">    0.67    0.67</time>
   <time name="diis">    0.32    0.32</time>
   <time name="orth">    0.14    0.14</time>
   <time name="total">    1.20    1.21</time>
   <energy>
    <i name="e_fr_energy">    -15.29003233 </i>
    <i name="e_wo_entrp">    -15.28792973 </i>
    <i name="e_0_energy">    -15.28898103 </i>
   </energy>
  </scstep>
  <scstep>
   <time name="diag">    0.69    0.69</time>
   <time name="diis">    0.32    0.32</time>
   <time name="orth">    0.15    0.15</time>
   <time name="total">    1.18    1.18</time>
   <energy>
    <i name="alphaZ">     55.91533244 </i>
    <i name="ewald">   -724.35133889 </i>
    <i name="hartreedc">   -251.17274918 </i>
    <i name="XCdc">     41.56418178 </i>
    <i name="pawpsdc">   1051.82352253 </i>
    <i name="pawaedc">  -1167.88717105 </i>
    <i name="eentropy">     -0.00209467 </i>
    <i name="bandstr">   -220.21852677 </i>
    <i name="atom">   1199.03881054 </i>
    <i name="e_fr_energy">    -15.29003328 </i>
    <i name="e_wo_entrp">    -15.28793861 </i>
    <i name="e_0_energy">    -15.28898595 </i>
   </energy>
  </scstep>
  <structure>
   <crystal>
    <varray name="basis" >
     <v>       3.07368000       0.00000000       0.00000000 </v>
     <v>      -1.53684000       2.66188500       0.00000000 </v>
     <v>       0.00000000       0.00000000       3.53435000 </v>
    </varray>
    <i name="volume">     28.91728364 </i>
    <varray name="rec_basis" >
     <v>       0.32534291       0.18783681       0.00000000 </v>
     <v>       0.00000000       0.37567363       0.00000000 </v>
     <v>       0.00000000       0.00000000       0.28293746 </v>
    </varray>
   </crystal>
   <varray name="positions" >
    <v>       0.00000000       0.00000000       0.00000000 </v>
    <v>       0.33333300       0.66666700       0.50000000 </v>
    <v>       0.66666700       0.33333300       0.50000000 </v>
   </varray>
  </structure>
  <varray name="forces" >
   <v>      -0.00000000       0.00000000       0.00000000 </v>
   <v>       0.00000000      -0.00000000       0.00000000 </v>
   <v>      -0.00000000       0.00000000       0.00000000 </v>
  </varray>
  <varray name="stress" >
   <v>       9.03975824      -0.00000000       0.00000000 </v>
   <v>       0.00000000       9.03975849       0.00000000 </v>
   <v>      -0.00000000      -0.00000000     -15.27308271 </v>
  </varray>
  <energy>
   <i name="e_fr_energy">    -15.29003328 </i>
   <i name="e_wo_entrp">    -15.28898595 </i>
   <i name="e_0_energy">     -0.00209467 </i>
  </energy>
  <time name="totalsc">   40.71   40.79</time>
 </calculation>
 <calculation>
  <scstep>
   <time name="dav">    6.27    6.27</time>
   <time name="total">    6.34    6.34</time>
   <energy>
    <i name="alphaZ">     55.87074027 </i>
    <i name="ewald">   -724.18596822 </i>
    <i name="hartreedc">   -251.13450803 </i>
    <i name="XCdc">     41.54939688 </i>
    <i name="pawpsdc">   1051.08069277 </i>
    <i name="pawaedc">  -1167.14181252 </i>
    <i name="eentropy">     -0.00202142 </i>
    <i name="bandstr">   -220.36815834 </i>
    <i name="atom">   1199.03881054 </i>
    <i name="e_fr_energy">    -15.29282808 </i>
    <i name="e_wo_entrp">    -15.29080667 </i>
    <i name="e_0_energy">    -15.29181738 </i>
   </energy>
  </scstep>
  <scstep>
   <time name="diag">    0.67    0.67</time>
   <time name="diis">    0.31    0.31</time>
   <time name="orth">    0.15    0.15</time>
   <time name="total">    1.19    1.20</time>
   <energy>
    <i name="e_fr_energy">    -15.29203356 </i>
    <i name="e_wo_entrp">    -15.29022931 </i>
    <i name="e_0_energy">    -15.29113144 </i>
   </energy>
  </scstep>
  <scstep>
   <time name="diag">    0.68    0.68</time>
   <time name="diis">    0.31    0.31</time>
   <time name="orth">    0.14    0.14</time>
   <time name="total">    1.20    1.20</time>
   <energy>
    <i name="e_fr_energy">    -15.29176268 </i>
    <i name="e_wo_entrp">    -15.29004942 </i>
    <i name="e_0_energy">    -15.29090605 </i>
   </energy>
  </scstep>
  <scstep>
   <time name="diag">    0.67    0.67</time>
   <time name="diis">    0.31    0.31</time>
   <time name="orth">    0.14    0.14</time>
   <time name="total">    1.20    1.20</time>
   <energy>
    <i name="e_fr_energy">    -15.29173786 </i>
    <i name="e_wo_entrp">    -15.29000805 </i>
    <i name="e_0_energy">    -15.29087295 </i>
   </energy>
  </scstep>
  <scstep>
   <time name="diag">    0.67    0.67</time>
   <time name="diis">    0.31    0.31</time>
   <time name="orth">    0.14    0.14</time>
   <time name="total">    1.15    1.15</time>
   <energy>
    <i name="alphaZ">     55.87074027 </i>
    <i name="ewald">   -724.18596822 </i>
    <i name="hartreedc">   -251.28092493 </i>
    <i name="XCdc">     41.55022899 </i>
    <i name="pawpsdc">   1047.37586624 </i>
    <i name="pawaedc">  -1163.44905005 </i>
    <i name="eentropy">     -0.00173274 </i>
    <i name="bandstr">   -220.20970795 </i>
    <i name="atom">   1199.03881054 </i>
    <i name="e_fr_energy">    -15.29173785 </i>
    <i name="e_wo_entrp">    -15.29000511 </i>
    <i name="e_0_energy">    -15.29087148 </i>
   </energy>
  </scstep>
  <structure>
   <crystal>
    <varray name="basis" >
     <v>       3.08174440      -0.00000000       0.00000000 </v>
     <v>      -1.54087220       2.66886898       0.00000000 </v>
     <v>      -0.00000000      -0.00000000       3.51868274 </v>
    </varray>
    <i name="volume">     28.94036342 </i>
    <varray name="rec_basis" >
     <v>       0.32449154       0.18734528       0.00000000 </v>
     <v>       0.00000000       0.37469056       0.00000000 </v>
     <v>      -0.00000000      -0.00000000       0.28419726 </v>
    </varray>
   </crystal>
   <varray name="positions" >
    <v>      -0.00000000       0.00000000       0.00000000 </v>
    <v>       0.33333300       0.66666700       0.50000000 </v>
    <v>       0.66666700       0.33333300       0.50000000 </v>
   </varray>
  </structure>
  <varray name="forces" >
   <v>      -0.00000000       0.00000000       0.00000000 </v>
   <v>      -0.00000000       0.00000000      -0.00000000 </v>
   <v>       0.00000000      -0.00000000       0.00000000 </v>
  </varray>
  <varray name="stress" >
   <v>       2.14586730      -0.00000000       0.00000000 </v>
   <v>       0.00000000       2.14586736       0.00000000 </v>
   <v>       0.00000000      -0.00000000     -13.48476178 </v>
  </varray>
  <energy>
   <i name="e_fr_energy">    -15.29173785 </i>
   <i name="e_wo_entrp">    -15.29087148 </i>
   <i name="e_0_energy">     -0.00173274 </i>
  </energy>
  <time name="totalsc">   12.30   12.31</time>
 </calculation>
 <calculation>
  <scstep>
   <time name="dav">    8.09    8.09</time>
   <time name="total">    8.15    8.15</time>
   <energy>
    <i name="alphaZ">     55.82136961 </i>
    <i name="ewald">   -724.00150381 </i>
    <i name="hartreedc">   -251.25436933 </i>
    <i name="XCdc">     41.53462521 </i>
    <i name="pawpsdc">   1047.39535976 </i>
    <i name="pawaedc">  -1163.46749294 </i>
    <i name="eentropy">     -0.00133859 </i>
    <i name="bandstr">   -220.35954734 </i>
    <i name="atom">   1199.03881054 </i>
    <i name="e_fr_energy">    -15.29408689 </i>
    <i name="e_wo_entrp">    -15.29274830 </i>
    <i name="e_0_energy">    -15.29341760 </i>
   </energy>
  </scstep>
  <scstep>
   <time name="diag">    0.67    0.67</time>
   <time name="diis">    0.31    0.31</time>
   <time name="orth">    0.14    0.14</time>
   <time name="total">    1.19    1.19</time>
   <energy>
    <i name="e_fr_energy">    -15.29284503 </i>
    <i name="e_wo_entrp">    -15.29165277 </i>
    <i name="e_0_energy">    -15.29224890 </i>
   </energy>
  </scstep>
  <scstep>
   <time name="diag">    0.67    0.67</time>
   <time name="diis">    0.32    0.32</time>
   <time name="orth">    0.14    0.14</time>
   <time name="total">    1.19    1.19</time>
   <energy>
    <i name="e_fr_energy">    -15.29244338 </i>
    <i name="e_wo_entrp">    -15.29129131 </i>
    <i name="e_0_energy">    -15.29186734 </i>
   </energy>
  </scstep>
  <scstep>
   <time name="diag">    0.67    0.67</time>
   <time name="diis">    0.32    0.32</time>
   <time name="orth">    0.14    0.14</time>
   <time name="total">    1.20    1.20</time>
   <energy>
    <i name="e_fr_energy">    -15.29240813 </i>
    <i name="e_wo_entrp">    -15.29125697 </i>
    <i name="e_0_energy">    -15.29183255 </i>
   </energy>
  </scstep>
  <scstep>
   <time name="diag">    0.71    0.71</time>
   <time name="diis">    0.33    0.33</time>
   <time name="orth">    0.15    0.15</time>
   <time name="total">    1.21    1.21</time>
   <energy>
    <i name="alphaZ">     55.82136961 </i>
    <i name="ewald">   -724.00150381 </i>
    <i name="hartreedc">   -251.40325097 </i>
    <i name="XCdc">     41.53319067 </i>
    <i name="pawpsdc">   1043.22972477 </i>
    <i name="pawaedc">  -1159.30600582 </i>
    <i name="eentropy">     -0.00115194 </i>
    <i name="bandstr">   -220.20359114 </i>
    <i name="atom">   1199.03881054 </i>
    <i name="e_fr_energy">    -15.29240810 </i>
    <i name="e_wo_entrp">    -15.29125616 </i>
    <i name="e_0_energy">    -15.29183213 </i>
   </energy>
  </scstep>
  <structure>
   <crystal>
    <varray name="basis" >
     <v>       3.09110552      -0.00000000       0.00000000 </v>
     <v>      -1.54555276       2.67697594       0.00000000 </v>
     <v>      -0.00000000      -0.00000000       3.50049627 </v>
    </varray>
    <i name="volume">     28.96595944 </i>
    <varray name="rec_basis" >
     <v>       0.32350885       0.18677792       0.00000000 </v>
     <v>       0.00000000       0.37355584       0.00000000 </v>
     <v>      -0.00000000      -0.00000000       0.28567378 </v>
    </varray>
   </crystal>
   <varray name="positions" >
    <v>      -0.00000000      -0.00000000       0.00000000 </v>
    <v>       0.33333300       0.66666700       0.50000000 </v>
    <v>       0.66666700       0.33333300       0.50000000 </v>
   </varray>
  </structure>
  <varray name="forces" >
   <v>       0.00000000       0.00000000       0.00000000 </v>
   <v>      -0.00000000      -0.00000000      -0.00000000 </v>
   <v>       0.00000000      -0.00000000       0.00000000 </v>
  </varray>
  <varray name="stress" >
   <v>      -8.76329578       0.00000000       0.00000000 </v>
   <v>      -0.00000000      -8.76329603      -0.00000000 </v>
   <v>      -0.00000000       0.00000000      -6.07554581 </v>
  </varray>
  <energy>
   <i name="e_fr_energy">    -15.29240810 </i>
   <i name="e_wo_entrp">    -15.29183213 </i>
   <i name="e_0_energy">     -0.00115194 </i>
  </energy>
  <time name="totalsc">   14.17   14.18</time>
 </calculation>
 <calculation>
  <scstep>
   <time name="dav">    7.27    7.27</time>
   <time name="total">    7.33    7.33</time>
   <energy>
    <i name="alphaZ">     55.83160360 </i>
    <i name="ewald">   -724.03986199 </i>
    <i name="hartreedc">   -251.40803271 </i>
    <i name="XCdc">     41.53646928 </i>
    <i name="pawpsdc">   1043.26202443 </i>
    <i name="pawaedc">  -1159.33823212 </i>
    <i name="eentropy">     -0.00122146 </i>
    <i name="bandstr">   -220.17407096 </i>
    <i name="atom">   1199.03881054 </i>
    <i name="e_fr_energy">    -15.29251140 </i>
    <i name="e_wo_entrp">    -15.29128994 </i>
    <i name="e_0_energy">    -15.29190067 </i>
   </energy>
  </scstep>
  <scstep>
   <time name="diag">    0.67    0.67</time>
   <time name="diis">    0.31    0.31</time>
   <time name="orth">    0.14    0.14</time>
   <time name="total">    1.19    1.19</time>
   <energy>
    <i name="e_fr_energy">    -15.29245437 </i>
    <i name="e_wo_entrp">    -15.29121985 </i>
    <i name="e_0_energy">    -15.29183711 </i>
   </energy>
  </scstep>
  <scstep>
   <time name="diag">    0.67    0.67</time>
   <time name="diis">    0.31    0.31</time>
   <time name="orth">    0.14    0.14</time>
   <time name="total">    1.19    1.19</time>
   <energy>
    <i name="e_fr_energy">    -15.29243600 </i>
    <i name="e_wo_entrp">    -15.29118999 </i>
    <i name="e_0_energy">    -15.29181299 </i>
   </energy>
  </scstep>
  <scstep>
   <time name="diag">    0.67    0.67</time>
   <time name="diis">    0.31    0.31</time>
   <time name="orth">    0.14    0.14</time>
   <time name="total">    1.19    1.19</time>
   <energy>
    <i name="e_fr_energy">    -15.29243481 </i>
    <i name="e_wo_entrp">    -15.29118988 </i>
    <i name="e_0_energy">    -15.29181234 </i>
   </energy>
  </scstep>
  <scstep>
   <time name="diag">    0.67    0.67</time>
   <time name="diis">    0.30    0.30</time>
   <time name="orth">    0.14    0.14</time>
   <time name="total">    1.15    1.15</time>
   <energy>
    <i name="alphaZ">     55.83160360 </i>
    <i name="ewald">   -724.03986199 </i>
    <i name="hartreedc">   -251.37904957 </i>
    <i name="XCdc">     41.53684494 </i>
    <i name="pawpsdc">   1044.16609740 </i>
    <i name="pawaedc">  -1160.24202010 </i>
    <i name="eentropy">     -0.00124494 </i>
    <i name="bandstr">   -220.20361466 </i>
    <i name="atom">   1199.03881054 </i>
    <i name="e_fr_energy">    -15.29243478 </i>
    <i name="e_wo_entrp">    -15.29118984 </i>
    <i name="e_0_energy">    -15.29181231 </i>
   </energy>
  </scstep>
  <structure>
   <crystal>
    <varray name="basis" >
     <v>       3.08912440      -0.00000000       0.00000000 </v>
     <v>      -1.54456220       2.67526024       0.00000000 </v>
     <v>      -0.00000000      -0.00000000       3.50434513 </v>
    </varray>
    <i name="volume">     28.96064995 </i>
    <varray name="rec_basis" >
     <v>       0.32371633       0.18689771       0.00000000 </v>
     <v>       0.00000000       0.37379541       0.00000000 </v>
     <v>      -0.00000000      -0.00000000       0.28536002 </v>
    </varray>
   </crystal>
   <varray name="positions" >
    <v>      -0.00000000      -0.00000000       0.00000000 </v>
    <v>       0.33333300       0.66666700       0.50000000 </v>
    <v>       0.66666700       0.33333300       0.50000000 </v>
   </varray>
  </structure>
  <varray name="forces" >
   <v>       0.00000000       0.00000000      -0.00000000 </v>
   <v>      -0.00000000       0.00000000       0.00000000 </v>
   <v>       0.00000000      -0.00000000       0.00000000 </v>
  </varray>
  <varray name="stress" >
   <v>      -6.03748360       0.00000000       0.00000000 </v>
   <v>       0.00000000      -6.03748377       0.00000000 </v>
   <v>      -0.00000000      -0.00000000      -8.50363115 </v>
  </varray>
  <energy>
   <i name="e_fr_energy">    -15.29243478 </i>
   <i name="e_wo_entrp">    -15.29181231 </i>
   <i name="e_0_energy">     -0.00124494 </i>
  </energy>
  <time name="totalsc">   13.35   13.37</time>
 </calculation>
 <calculation>
  <scstep>
   <time name="dav">    7.66    7.66</time>
   <time name="total">    7.72    7.73</time>
   <energy>
    <i name="alphaZ">     56.21169848 </i>
    <i name="ewald">   -725.69089506 </i>
    <i name="hartreedc">   -251.96919108 </i>
    <i name="XCdc">     41.65736424 </i>
    <i name="pawpsdc">   1044.15442410 </i>
    <i name="pawaedc">  -1160.23040994 </i>
    <i name="eentropy">     -0.00123147 </i>
    <i name="bandstr">   -218.46577325 </i>
    <i name="atom">   1199.03881054 </i>
    <i name="e_fr_energy">    -15.29520344 </i>
    <i name="e_wo_entrp">    -15.29397198 </i>
    <i name="e_0_energy">    -15.29458771 </i>
   </energy>
  </scstep>
  <scstep>
   <time name="diag">    0.67    0.67</time>
   <time name="diis">    0.31    0.31</time>
   <time name="orth">    0.14    0.14</time>
   <time name="total">    1.19    1.19</time>
   <energy>
    <i name="e_fr_energy">    -15.29342293 </i>
    <i name="e_wo_entrp">    -15.29227986 </i>
    <i name="e_0_energy">    -15.29285139 </i>
   </energy>
  </scstep>
  <scstep>
   <time name="diag">    0.67    0.67</time>
   <time name="diis">    0.31    0.31</time>
   <time name="orth">    0.15    0.15</time>
   <time name="total">    1.20    1.20</time>
   <energy>
    <i name="e_fr_energy">    -15.29277813 </i>
    <i name="e_wo_entrp">    -15.29166368 </i>
    <i name="e_0_energy">    -15.29222090 </i>
   </energy>
  </scstep>
  <scstep>
   <time name="diag">    0.67    0.67</time>
   <time name="diis">    0.32    0.32</time>
   <time name="orth">    0.14    0.14</time>
   <time name="total">    1.20    1.20</time>
   <energy>
    <i name="e_fr_energy">    -15.29274784 </i>
    <i name="e_wo_entrp">    -15.29162882 </i>
    <i name="e_0_energy">    -15.29218833 </i>
   </energy>
  </scstep>
  <scstep>
   <time name="diag">    0.68    0.68</time>
   <time name="diis">    0.31    0.31</time>
   <time name="orth">    0.14    0.14</time>
   <time name="total">    1.19    1.19</time>
   <energy>
    <i name="e_fr_energy">    -15.29274660 </i>
    <i name="e_wo_entrp">    -15.29162703 </i>
    <i name="e_0_energy">    -15.29218681 </i>
   </energy>
  </scstep>
  <scstep>
   <time name="diag">    0.67    0.67</time>
   <time name="diis">    0.30    0.30</time>
   <time name="orth">    0.14    0.14</time>
   <time name="total">    1.14    1.14</time>
   <energy>
    <i name="alphaZ">     56.21169848 </i>
    <i name="ewald">   -725.69089506 </i>
    <i name="hartreedc">   -250.78530309 </i>
    <i name="XCdc">     41.57414532 </i>
    <i name="pawpsdc">   1048.56940428 </i>
    <i name="pawaedc">  -1164.67112482 </i>
    <i name="eentropy">     -0.00111940 </i>
    <i name="bandstr">   -219.53836285 </i>
    <i name="atom">   1199.03881054 </i>
    <i name="e_fr_energy">    -15.29274660 </i>
    <i name="e_wo_entrp">    -15.29162720 </i>
    <i name="e_0_energy">    -15.29218690 </i>
   </energy>
  </scstep>
  <structure>
   <crystal>
    <varray name="basis" >
     <v>       3.08572971      -0.00000000       0.00000000 </v>
     <v>      -1.54286485       2.67232035       0.00000000 </v>
     <v>      -0.00000000      -0.00000000       3.48831180 </v>
    </varray>
    <i name="volume">     28.76482248 </i>
    <varray name="rec_basis" >
     <v>       0.32407245       0.18710332       0.00000000 </v>
     <v>       0.00000000       0.37420663       0.00000000 </v>
     <v>      -0.00000000      -0.00000000       0.28667162 </v>
    </varray>
   </crystal>
   <varray name="positions" >
    <v>      -0.00000000       0.00000000      -0.00000000 </v>
    <v>       0.33333300       0.66666700       0.50000000 </v>
    <v>       0.66666700       0.33333300       0.50000000 </v>
   </varray>
  </structure>
  <varray name="forces" >
   <v>       0.00000000       0.00000000      -0.00000000 </v>
   <v>      -0.00000000      -0.00000000      -0.00000000 </v>
   <v>       0.00000000       0.00000000       0.00000000 </v>
  </varray>
  <varray name="stress" >
   <v>       0.25237830       0.00000000       0.00000000 </v>
   <v>      -0.00000000       0.25237831       0.00000000 </v>
   <v>       0.00000000       0.00000000       3.99669982 </v>
  </varray>
  <energy>
   <i name="e_fr_energy">    -15.29274660 </i>
   <i name="e_wo_entrp">    -15.29218690 </i>
   <i name="e_0_energy">     -0.00111940 </i>
  </energy>
  <time name="totalsc">   14.88   14.90</time>
 </calculation>
 <calculation>
  <scstep>
   <time name="dav">    7.83    7.83</time>
   <time name="total">    7.90    7.90</time>
   <energy>
    <i name="alphaZ">     56.11416761 </i>
    <i name="ewald">   -725.26800113 </i>
    <i name="hartreedc">   -250.63315139 </i>
    <i name="XCdc">     41.54327843 </i>
    <i name="pawpsdc">   1048.55796754 </i>
    <i name="pawaedc">  -1164.65925517 </i>
    <i name="eentropy">     -0.00112552 </i>
    <i name="bandstr">   -219.98564401 </i>
    <i name="atom">   1199.03881054 </i>
    <i name="e_fr_energy">    -15.29295312 </i>
    <i name="e_wo_entrp">    -15.29182760 </i>
    <i name="e_0_energy">    -15.29239036 </i>
   </energy>
  </scstep>
  <scstep>
   <time name="diag">    0.67    0.67</time>
   <time name="diis">    0.31    0.31</time>
   <time name="orth">    0.14    0.14</time>
   <time name="total">    1.18    1.19</time>
   <energy>
    <i name="e_fr_energy">    -15.29283683 </i>
    <i name="e_wo_entrp">    -15.29170599 </i>
    <i name="e_0_energy">    -15.29227141 </i>
   </energy>
  </scstep>
  <scstep>
   <time name="diag">    0.67    0.67</time>
   <time name="diis">    0.31    0.31</time>
   <time name="orth">    0.15    0.15</time>
   <time name="total">    1.19    1.19</time>
   <energy>
    <i name="e_fr_energy">    -15.29279339 </i>
    <i name="e_wo_entrp">    -15.29165625 </i>
    <i name="e_0_energy">    -15.29222482 </i>
   </energy>
  </scstep>
  <scstep>
   <time name="diag">    0.67    0.67</time>
   <time name="diis">    0.31    0.31</time>
   <time name="orth">    0.15    0.15</time>
   <time name="total">    1.18    1.19</time>
   <energy>
    <i name="e_fr_energy">    -15.29279091 </i>
    <i name="e_wo_entrp">    -15.29165564 </i>
    <i name="e_0_energy">    -15.29222328 </i>
   </energy>
  </scstep>
  <scstep>
   <time name="diag">    0.67    0.67</time>
   <time name="diis">    0.30    0.30</time>
   <time name="orth">    0.14    0.14</time>
   <time name="total">    1.14    1.15</time>
   <energy>
    <i name="alphaZ">     56.11416761 </i>
    <i name="ewald">   -725.26800113 </i>
    <i name="hartreedc">   -250.93529512 </i>
    <i name="XCdc">     41.56451852 </i>
    <i name="pawpsdc">   1047.42256565 </i>
    <i name="pawaedc">  -1163.51954908 </i>
    <i name="eentropy">     -0.00113539 </i>
    <i name="bandstr">   -219.70887239 </i>
    <i name="atom">   1199.03881054 </i>
    <i name="e_fr_energy">    -15.29279079 </i>
    <i name="e_wo_entrp">    -15.29165540 </i>
    <i name="e_0_energy">    -15.29222310 </i>
   </energy>
  </scstep>
  <structure>
   <crystal>
    <varray name="basis" >
     <v>       3.08659746      -0.00000000       0.00000000 </v>
     <v>      -1.54329873       2.67307185       0.00000000 </v>
     <v>      -0.00000000      -0.00000000       3.49241025 </v>
    </varray>
    <i name="volume">     28.81481802 </i>
    <varray name="rec_basis" >
     <v>       0.32398135       0.18705071       0.00000000 </v>
     <v>       0.00000000       0.37410143       0.00000000 </v>
     <v>      -0.00000000      -0.00000000       0.28633520 </v>
    </varray>
   </crystal>
   <varray name="positions" >
    <v>      -0.00000000       0.00000000      -0.00000000 </v>
    <v>       0.33333300       0.66666700       0.50000000 </v>
    <v>       0.66666700       0.33333300       0.50000000 </v>
   </varray>
  </structure>
  <varray name="forces" >
   <v>       0.00000000       0.00000000       0.00000000 </v>
   <v>       0.00000000      -0.00000000      -0.00000000 </v>
   <v>      -0.00000000       0.00000000       0.00000000 </v>
  </varray>
  <varray name="stress" >
   <v>      -1.46253728       0.00000000       0.00000000 </v>
   <v>       0.00000000      -1.46253732      -0.00000000 </v>
   <v>      -0.00000000      -0.00000000       0.47509458 </v>
  </varray>
  <energy>
   <i name="e_fr_energy">    -15.29279079 </i>
   <i name="e_wo_entrp">    -15.29222310 </i>
   <i name="e_0_energy">     -0.00113539 </i>
  </energy>
  <time name="totalsc">   13.84   13.85</time>
 </calculation>
 <calculation>
  <scstep>
   <time name="dav">    7.60    7.60</time>
   <time name="total">    7.66    7.66</time>
   <energy>
    <i name="alphaZ">     56.13623703 </i>
    <i name="ewald">   -725.36028488 </i>
    <i name="hartreedc">   -250.96361064 </i>
    <i name="XCdc">     41.57151162 </i>
    <i name="pawpsdc">   1047.42067733 </i>
    <i name="pawaedc">  -1163.51611154 </i>
    <i name="eentropy">     -0.00115813 </i>
    <i name="bandstr">   -219.61888993 </i>
    <i name="atom">   1199.03881054 </i>
    <i name="e_fr_energy">    -15.29281861 </i>
    <i name="e_wo_entrp">    -15.29166048 </i>
    <i name="e_0_energy">    -15.29223954 </i>
   </energy>
  </scstep>
  <scstep>
   <time name="diag">    0.67    0.67</time>
   <time name="diis">    0.31    0.31</time>
   <time name="orth">    0.14    0.14</time>
   <time name="total">    1.19    1.19</time>
   <energy>
    <i name="e_fr_energy">    -15.29280234 </i>
    <i name="e_wo_entrp">    -15.29163870 </i>
    <i name="e_0_energy">    -15.29222052 </i>
   </energy>
  </scstep>
  <scstep>
   <time name="diag">    0.67    0.67</time>
   <time name="diis">    0.31    0.31</time>
   <time name="orth">    0.14    0.14</time>
   <time name="total">    1.19    1.19</time>
   <energy>
    <i name="e_fr_energy">    -15.29279676 </i>
    <i name="e_wo_entrp">    -15.29162894 </i>
    <i name="e_0_energy">    -15.29221285 </i>
   </energy>
  </scstep>
  <scstep>
   <time name="diag">    0.67    0.67</time>
   <time name="diis">    0.30    0.30</time>
   <time name="orth">    0.15    0.15</time>
   <time name="total">    1.14    1.14</time>
   <energy>
    <i name="alphaZ">     56.13623703 </i>
    <i name="ewald">   -725.36028488 </i>
    <i name="hartreedc">   -250.89684748 </i>
    <i name="XCdc">     41.56813835 </i>
    <i name="pawpsdc">   1048.11776565 </i>
    <i name="pawaedc">  -1164.21255626 </i>
    <i name="eentropy">     -0.00116729 </i>
    <i name="bandstr">   -219.68289225 </i>
    <i name="atom">   1199.03881054 </i>
    <i name="e_fr_energy">    -15.29279659 </i>
    <i name="e_wo_entrp">    -15.29162929 </i>
    <i name="e_0_energy">    -15.29221294 </i>
   </energy>
  </scstep>
  <structure>
   <crystal>
    <varray name="basis" >
     <v>       3.08533343      -0.00000000       0.00000000 </v>
     <v>      -1.54266671       2.67197716      -0.00000000 </v>
     <v>      -0.00000000      -0.00000000       3.49389832 </v>
    </varray>
    <i name="volume">     28.80348975 </i>
    <varray name="rec_basis" >
     <v>       0.32411408       0.18712735       0.00000000 </v>
     <v>       0.00000000       0.37425470       0.00000000 </v>
     <v>      -0.00000000      -0.00000000       0.28621325 </v>
    </varray>
   </crystal>
   <varray name="positions" >
    <v>      -0.00000000       0.00000000      -0.00000000 </v>
    <v>       0.33333300       0.66666700       0.50000000 </v>
    <v>       0.66666700       0.33333300       0.50000000 </v>
   </varray>
  </structure>
  <varray name="forces" >
   <v>       0.00000000       0.00000000       0.00000000 </v>
   <v>       0.00000000      -0.00000000       0.00000000 </v>
   <v>      -0.00000000       0.00000000      -0.00000000 </v>
  </varray>
  <varray name="stress" >
   <v>       0.84010579       0.00000000      -0.00000000 </v>
   <v>       0.00000000       0.84010581       0.00000000 </v>
   <v>      -0.00000000       0.00000000      -0.17559280 </v>
  </varray>
  <energy>
   <i name="e_fr_energy">    -15.29279659 </i>
   <i name="e_wo_entrp">    -15.29221294 </i>
   <i name="e_0_energy">     -0.00116729 </i>
  </energy>
  <time name="totalsc">   12.45   12.46</time>
 </calculation>
 <calculation>
  <scstep>
   <time name="dav">    7.66    7.66</time>
   <time name="total">    7.72    7.72</time>
   <energy>
    <i name="alphaZ">     56.12845148 </i>
    <i name="ewald">   -725.32773514 </i>
    <i name="hartreedc">   -250.88726222 </i>
    <i name="XCdc">     41.56569606 </i>
    <i name="pawpsdc">   1048.11284016 </i>
    <i name="pawaedc">  -1164.20856997 </i>
    <i name="eentropy">     -0.00115828 </i>
    <i name="bandstr">   -219.71387434 </i>
    <i name="atom">   1199.03881054 </i>
    <i name="e_fr_energy">    -15.29280172 </i>
    <i name="e_wo_entrp">    -15.29164344 </i>
    <i name="e_0_energy">    -15.29222258 </i>
   </energy>
  </scstep>
  <scstep>
   <time name="diag">    0.67    0.67</time>
   <time name="diis">    0.31    0.31</time>
   <time name="orth">    0.14    0.14</time>
   <time name="total">    1.18    1.19</time>
   <energy>
    <i name="e_fr_energy">    -15.29279972 </i>
    <i name="e_wo_entrp">    -15.29164375 </i>
    <i name="e_0_energy">    -15.29222174 </i>
   </energy>
  </scstep>
  <scstep>
   <time name="diag">    0.67    0.67</time>
   <time name="diis">    0.29    0.29</time>
   <time name="orth">    0.14    0.14</time>
   <time name="total">    1.13    1.13</time>
   <energy>
    <i name="alphaZ">     56.12845148 </i>
    <i name="ewald">   -725.32773514 </i>
    <i name="hartreedc">   -250.90871876 </i>
    <i name="XCdc">     41.56672185 </i>
    <i name="pawpsdc">   1047.88978869 </i>
    <i name="pawaedc">  -1163.98739608 </i>
    <i name="eentropy">     -0.00115461 </i>
    <i name="bandstr">   -219.69156678 </i>
    <i name="atom">   1199.03881054 </i>
    <i name="e_fr_energy">    -15.29279880 </i>
    <i name="e_wo_entrp">    -15.29164420 </i>
    <i name="e_0_energy">    -15.29222150 </i>
   </energy>
  </scstep>
  <structure>
   <crystal>
    <varray name="basis" >
     <v>       3.08577910      -0.00000000       0.00000000 </v>
     <v>      -1.54288955       2.67236313       0.00000000 </v>
     <v>      -0.00000000      -0.00000000       3.49337366 </v>
    </varray>
    <i name="volume">     28.80748507 </i>
    <varray name="rec_basis" >
     <v>       0.32406727       0.18710032       0.00000000 </v>
     <v>       0.00000000       0.37420064       0.00000000 </v>
     <v>      -0.00000000      -0.00000000       0.28625624 </v>
    </varray>
   </crystal>
   <varray name="positions" >
    <v>      -0.00000000       0.00000000      -0.00000000 </v>
    <v>       0.33333300       0.66666700       0.50000000 </v>
    <v>       0.66666700       0.33333300       0.50000000 </v>
   </varray>
  </structure>
  <varray name="forces" >
   <v>       0.00000000       0.00000000       0.00000000 </v>
   <v>      -0.00000000      -0.00000000       0.00000000 </v>
   <v>      -0.00000000      -0.00000000      -0.00000000 </v>
  </varray>
  <varray name="stress" >
   <v>      -0.12756577       0.00000000       0.00000000 </v>
   <v>      -0.00000000      -0.12756578      -0.00000000 </v>
   <v>       0.00000000       0.00000000      -0.22089482 </v>
  </varray>
  <energy>
   <i name="e_fr_energy">    -15.29279880 </i>
   <i name="e_wo_entrp">    -15.29222150 </i>
   <i name="e_0_energy">     -0.00115461 </i>
  </energy>
  <time name="totalsc">   11.04   11.05</time>
  <eigenvalues>
   <array>
    <dimension dim="1">band</dimension>
    <dimension dim="2">kpoint</dimension>
    <dimension dim="3">spin</dimension>
    <field>eigene</field>
    <field>occ</field>
    <set>
     <set comment="spin 1">
      <set comment="kpoint 1">
       <r>  -36.7927    1.0000 </r>
       <r>  -36.7927    1.0000 </r>
       <r>  -36.7817    1.0000 </r>
       <r>   -7.3897    1.0000 </r>
       <r>    2.2116    1.0000 </r>
       <r>    5.3953    0.0000 </r>
       <r>    5.3953    0.0000 </r>
       <r>    6.8832    0.0000 </r>
       <r>   11.3167    0.0000 </r>
       <r>   11.3168    0.0000 </r>
       <r>   13.0810    0.0000 </r>
       <r>   15.0008    0.0000 </r>
       <r>   17.6987    0.0000 </r>
       <r>   21.3161    0.0000 </r>
       <r>   21.3161    0.0000 </r>
       <r>   23.9584    0.0000 </r>
       <r>   23.9584    0.0000 </r>
       <r>   24.3482    0.0000 </r>
       <r>   25.0412    0.0000 </r>
       <r>   25.0412    0.0000 </r>
       <r>   25.1013    0.0000 </r>
       <r>   25.1013    0.0000 </r>
       <r>   28.2268    0.0000 </r>
       <r>   37.0063    0.0000 </r>
       <r>   37.5049    0.0000 </r>
       <r>   39.9076    0.0000 </r>
       <r>   39.9076    0.0000 </r>
       <r>   40.5116    0.0000 </r>
       <r>   49.2332    0.0000 </r>
       <r>   50.5703    0.0000 </r>
       <r>   50.5703    0.0000 </r>
       <r>   54.2818    0.0000 </r>
       <r>   54.2818    0.0000 </r>
       <r>   54.4991    0.0000 </r>
       <r>   56.2484    0.0000 </r>
       <r>   56.2485    0.0000 </r>
       <r>   56.5250    0.0000 </r>
       <r>   58.6390    0.0000 </r>
       <r>   58.6391    0.0000 </r>
       <r>   59.4423    0.0000 </r>
       <r>   59.7850    0.0000 </r>
       <r>   59.7850    0.0000 </r>
       <r>   61.7704    0.0000 </r>
       <r>   62.2874    0.0000 </r>
       <r>   62.2874    0.0000 </r>
       <r>   63.2587    0.0000 </r>
       <r>   65.6299    0.0000 </r>
       <r>   66.4087    0.0000 </r>
       <r>   66.4087    0.0000 </r>
       <r>   66.7978    0.0000 </r>
       <r>   66.9628    0.0000 </r>
       <r>   66.9629    0.0000 </r>
       <r>   67.6175    0.0000 </r>
       <r>   67.6175    0.0000 </r>
       <r>   68.5087    0.0000 </r>
       <r>   69.2330    0.0000 </r>
       <r>   69.2330    0.0000 </r>
       <r>   74.6445    0.0000 </r>
       <r>   74.6445    0.0000 </r>
       <r>   75.5243    0.0000 </r>
       <r>   77.5596    0.0000 </r>
       <r>   79.3646    0.0000 </r>
       <r>   79.3646    0.0000 </r>
       <r>   83.3155    0.0000 </r>
      </set>
      <set comment="kpoint 2">
       <r>  -36.7985    1.0000 </r>
       <r>  -36.7941    1.0000 </r>
       <r>  -36.7808    1.0000 </r>
       <r>   -7.1172    1.0000 </r>
       <r>    2.4733    1.0000 </r>
       <r>    4.1259    1.0000 </r>
       <r>    4.8185    1.0000 </r>
       <r>    7.1237    0.0000 </r>
       <r>   11.0732    0.0000 </r>
       <r>   12.4399    0.0000 </r>
       <r>   13.6943    0.0000 </r>
       <r>   14.0826    0.0000 </r>
       <r>   18.9721    0.0000 </r>
       <r>   20.2266    0.0000 </r>
       <r>   20.7766    0.0000 </r>
       <r>   21.0926    0.0000 </r>
       <r>   22.1664    0.0000 </r>
       <r>   25.2931    0.0000 </r>
       <r>   25.4212    0.0000 </r>
       <r>   26.0850    0.0000 </r>
       <r>   27.4758    0.0000 </r>
       <r>   28.5805    0.0000 </r>
       <r>   29.5343    0.0000 </r>
       <r>   36.9336    0.0000 </r>
       <r>   37.4665    0.0000 </r>
       <r>   38.2274    0.0000 </r>
       <r>   38.7859    0.0000 </r>
       <r>   42.7659    0.0000 </r>
       <r>   47.3133    0.0000 </r>
       <r>   48.4018    0.0000 </r>
       <r>   51.4745    0.0000 </r>
       <r>   52.7553    0.0000 </r>
       <r>   53.1512    0.0000 </r>
       <r>   53.7337    0.0000 </r>
       <r>   54.7571    0.0000 </r>
       <r>   55.5721    0.0000 </r>
       <r>   56.2623    0.0000 </r>
       <r>   57.3274    0.0000 </r>
       <r>   58.7974    0.0000 </r>
       <r>   60.0761    0.0000 </r>
       <r>   60.8019    0.0000 </r>
       <r>   60.8318    0.0000 </r>
       <r>   61.0438    0.0000 </r>
       <r>   61.2635    0.0000 </r>
       <r>   61.4835    0.0000 </r>
       <r>   62.4054    0.0000 </r>
       <r>   63.3626    0.0000 </r>
       <r>   65.2704    0.0000 </r>
       <r>   65.9309    0.0000 </r>
       <r>   66.3239    0.0000 </r>
       <r>   66.7924    0.0000 </r>
       <r>   67.6959    0.0000 </r>
       <r>   67.9397    0.0000 </r>
       <r>   68.4238    0.0000 </r>
       <r>   70.8511    0.0000 </r>
       <r>   71.8746    0.0000 </r>
       <r>   74.1958    0.0000 </r>
       <r>   74.3159    0.0000 </r>
       <r>   75.8236    0.0000 </r>
       <r>   76.5930    0.0000 </r>
       <r>   77.0652    0.0000 </r>
       <r>   80.0645    0.0000 </r>
       <r>   80.2007    0.0000 </r>
       <r>   81.9738    0.0000 </r>
      </set>
      <set comment="kpoint 3">
       <r>  -36.8126    1.0000 </r>
       <r>  -36.7976    1.0000 </r>
       <r>  -36.7787    1.0000 </r>
       <r>   -6.3080    1.0000 </r>
       <r>    1.6456    1.0000 </r>
       <r>    3.2430    1.0000 </r>
       <r>    3.8342    1.0000 </r>
       <r>    7.8244    0.0000 </r>
       <r>   10.3772    0.0000 </r>
       <r>   11.9157    0.0000 </r>
       <r>   14.3712    0.0000 </r>
       <r>   14.9986    0.0000 </r>
       <r>   19.1149    0.0000 </r>
       <r>   19.3017    0.0000 </r>
       <r>   19.9528    0.0000 </r>
       <r>   20.5639    0.0000 </r>
       <r>   21.6009    0.0000 </r>
       <r>   25.0814    0.0000 </r>
       <r>   27.1996    0.0000 </r>
       <r>   28.1329    0.0000 </r>
       <r>   30.9992    0.0000 </r>
       <r>   32.7131    0.0000 </r>
       <r>   32.9500    0.0000 </r>
       <r>   34.0993    0.0000 </r>
       <r>   35.3092    0.0000 </r>
       <r>   39.1874    0.0000 </r>
       <r>   39.6940    0.0000 </r>
       <r>   44.9042    0.0000 </r>
       <r>   45.0611    0.0000 </r>
       <r>   46.4155    0.0000 </r>
       <r>   49.2908    0.0000 </r>
       <r>   49.8564    0.0000 </r>
       <r>   50.0163    0.0000 </r>
       <r>   51.4080    0.0000 </r>
       <r>   51.8541    0.0000 </r>
       <r>   53.5031    0.0000 </r>
       <r>   53.5322    0.0000 </r>
       <r>   56.2058    0.0000 </r>
       <r>   56.5998    0.0000 </r>
       <r>   56.6886    0.0000 </r>
       <r>   57.9644    0.0000 </r>
       <r>   59.4557    0.0000 </r>
       <r>   60.5864    0.0000 </r>
       <r>   62.4126    0.0000 </r>
       <r>   63.1093    0.0000 </r>
       <r>   63.3470    0.0000 </r>
       <r>   64.9680    0.0000 </r>
       <r>   65.7678    0.0000 </r>
       <r>   66.6031    0.0000 </r>
       <r>   67.6803    0.0000 </r>
       <r>   68.1902    0.0000 </r>
       <r>   69.5282    0.0000 </r>
       <r>   69.5749    0.0000 </r>
       <r>   69.8872    0.0000 </r>
       <r>   70.3177    0.0000 </r>
       <r>   73.5055    0.0000 </r>
       <r>   75.9186    0.0000 </r>
       <r>   75.9705    0.0000 </r>
       <r>   76.1035    0.0000 </r>
       <r>   78.7996    0.0000 </r>
       <r>   78.9289    0.0000 </r>
       <r>   79.8875    0.0000 </r>
       <r>   82.4633    0.0000 </r>
       <r>   84.5578    0.0000 </r>
      </set>
      <set comment="kpoint 4">
       <r>  -36.8267    1.0000 </r>
       <r>  -36.8010    1.0000 </r>
       <r>  -36.7767    1.0000 </r>
       <r>   -4.9905    1.0000 </r>
       <r>   -0.8779    1.0000 </r>
       <r>    3.1180    1.0000 </r>
       <r>    4.4260    1.0000 </r>
       <r>    8.6622    0.0000 </r>
       <r>    9.5480    0.0000 </r>
       <r>   10.0869    0.0000 </r>
       <r>   13.3610    0.0000 </r>
       <r>   17.9065    0.0000 </r>
       <r>   18.0859    0.0000 </r>
       <r>   19.5172    0.0000 </r>
       <r>   19.5933    0.0000 </r>
       <r>   20.4940    0.0000 </r>
       <r>   23.2044    0.0000 </r>
       <r>   24.7226    0.0000 </r>
       <r>   29.0551    0.0000 </r>
       <r>   29.5402    0.0000 </r>
       <r>   31.9624    0.0000 </r>
       <r>   33.2452    0.0000 </r>
       <r>   35.1405    0.0000 </r>
       <r>   36.1758    0.0000 </r>
       <r>   36.4008    0.0000 </r>
       <r>   41.2529    0.0000 </r>
       <r>   42.8678    0.0000 </r>
       <r>   42.9202    0.0000 </r>
       <r>   44.8265    0.0000 </r>
       <r>   45.1357    0.0000 </r>
       <r>   45.6944    0.0000 </r>
       <r>   46.2550    0.0000 </r>
       <r>   47.6805    0.0000 </r>
       <r>   47.9697    0.0000 </r>
       <r>   49.5106    0.0000 </r>
       <r>   49.9156    0.0000 </r>
       <r>   52.0194    0.0000 </r>
       <r>   54.2208    0.0000 </r>
       <r>   54.5830    0.0000 </r>
       <r>   55.2688    0.0000 </r>
       <r>   57.3839    0.0000 </r>
       <r>   57.7544    0.0000 </r>
       <r>   59.7060    0.0000 </r>
       <r>   60.7614    0.0000 </r>
       <r>   61.5243    0.0000 </r>
       <r>   63.2219    0.0000 </r>
       <r>   64.9312    0.0000 </r>
       <r>   66.0800    0.0000 </r>
       <r>   68.7141    0.0000 </r>
       <r>   68.9809    0.0000 </r>
       <r>   70.6390    0.0000 </r>
       <r>   72.0997    0.0000 </r>
       <r>   72.6266    0.0000 </r>
       <r>   72.9443    0.0000 </r>
       <r>   73.1502    0.0000 </r>
       <r>   74.7283    0.0000 </r>
       <r>   75.2986    0.0000 </r>
       <r>   76.1860    0.0000 </r>
       <r>   77.5050    0.0000 </r>
       <r>   79.4928    0.0000 </r>
       <r>   81.1413    0.0000 </r>
       <r>   81.5643    0.0000 </r>
       <r>   81.6490    0.0000 </r>
       <r>   82.8126    0.0000 </r>
      </set>
      <set comment="kpoint 5">
       <r>  -36.8324    1.0000 </r>
       <r>  -36.8024    1.0000 </r>
       <r>  -36.7758    1.0000 </r>
       <r>   -3.4948    1.0000 </r>
       <r>   -2.7973    1.0000 </r>
       <r>    2.8658    1.0000 </r>
       <r>    5.3272    0.0000 </r>
       <r>    8.2054    0.0000 </r>
       <r>    8.8908    0.0000 </r>
       <r>   10.5460    0.0000 </r>
       <r>   12.3140    0.0000 </r>
       <r>   17.7657    0.0000 </r>
       <r>   18.8287    0.0000 </r>
       <r>   19.2690    0.0000 </r>
       <r>   20.2150    0.0000 </r>
       <r>   22.3943    0.0000 </r>
       <r>   22.5627    0.0000 </r>
       <r>   24.2244    0.0000 </r>
       <r>   28.1008    0.0000 </r>
       <r>   29.8939    0.0000 </r>
       <r>   32.3315    0.0000 </r>
       <r>   34.4908    0.0000 </r>
       <r>   37.5292    0.0000 </r>
       <r>   37.7640    0.0000 </r>
       <r>   39.2098    0.0000 </r>
       <r>   40.6546    0.0000 </r>
       <r>   41.6328    0.0000 </r>
       <r>   42.5206    0.0000 </r>
       <r>   43.5514    0.0000 </r>
       <r>   43.7180    0.0000 </r>
       <r>   44.2777    0.0000 </r>
       <r>   46.1239    0.0000 </r>
       <r>   46.9925    0.0000 </r>
       <r>   48.3293    0.0000 </r>
       <r>   49.4098    0.0000 </r>
       <r>   50.1893    0.0000 </r>
       <r>   50.6676    0.0000 </r>
       <r>   51.2120    0.0000 </r>
       <r>   52.6108    0.0000 </r>
       <r>   53.7119    0.0000 </r>
       <r>   56.7089    0.0000 </r>
       <r>   57.9132    0.0000 </r>
       <r>   59.6328    0.0000 </r>
       <r>   60.1794    0.0000 </r>
       <r>   61.1683    0.0000 </r>
       <r>   62.0800    0.0000 </r>
       <r>   64.8062    0.0000 </r>
       <r>   68.8626    0.0000 </r>
       <r>   69.1560    0.0000 </r>
       <r>   70.7526    0.0000 </r>
       <r>   70.8876    0.0000 </r>
       <r>   71.9888    0.0000 </r>
       <r>   72.4938    0.0000 </r>
       <r>   74.0692    0.0000 </r>
       <r>   75.5092    0.0000 </r>
       <r>   75.9097    0.0000 </r>
       <r>   76.2485    0.0000 </r>
       <r>   76.4890    0.0000 </r>
       <r>   77.2540    0.0000 </r>
       <r>   77.4550    0.0000 </r>
       <r>   79.4796    0.0000 </r>
       <r>   81.9295    0.0000 </r>
       <r>   85.1828    0.0000 </r>
       <r>   85.2631    0.0000 </r>
      </set>
      <set comment="kpoint 6">
       <r>  -36.8079    1.0000 </r>
       <r>  -36.7972    1.0000 </r>
       <r>  -36.7794    1.0000 </r>
       <r>   -6.5763    1.0000 </r>
       <r>    2.6662    1.0000 </r>
       <r>    2.9905    1.0000 </r>
       <r>    3.5657    1.0000 </r>
       <r>    7.6655    0.0000 </r>
       <r>   11.6305    0.0000 </r>
       <r>   12.4267    0.0000 </r>
       <r>   12.6105    0.0000 </r>
       <r>   15.2298    0.0000 </r>
       <r>   18.6400    0.0000 </r>
       <r>   19.6250    0.0000 </r>
       <r>   19.6394    0.0000 </r>
       <r>   20.9287    0.0000 </r>
       <r>   22.5920    0.0000 </r>
       <r>   25.3642    0.0000 </r>
       <r>   26.2909    0.0000 </r>
       <r>   26.5103    0.0000 </r>
       <r>   30.9325    0.0000 </r>
       <r>   31.3985    0.0000 </r>
       <r>   31.8416    0.0000 </r>
       <r>   34.1178    0.0000 </r>
       <r>   37.8496    0.0000 </r>
       <r>   38.5341    0.0000 </r>
       <r>   39.2283    0.0000 </r>
       <r>   42.3722    0.0000 </r>
       <r>   46.6124    0.0000 </r>
       <r>   47.0016    0.0000 </r>
       <r>   49.5313    0.0000 </r>
       <r>   50.3723    0.0000 </r>
       <r>   52.2167    0.0000 </r>
       <r>   52.3184    0.0000 </r>
       <r>   52.9968    0.0000 </r>
       <r>   54.0046    0.0000 </r>
       <r>   55.3790    0.0000 </r>
       <r>   55.7886    0.0000 </r>
       <r>   56.3376    0.0000 </r>
       <r>   57.8934    0.0000 </r>
       <r>   58.6749    0.0000 </r>
       <r>   60.7551    0.0000 </r>
       <r>   60.7825    0.0000 </r>
       <r>   61.5099    0.0000 </r>
       <r>   62.0477    0.0000 </r>
       <r>   63.8314    0.0000 </r>
       <r>   64.0049    0.0000 </r>
       <r>   64.9316    0.0000 </r>
       <r>   65.2873    0.0000 </r>
       <r>   65.6826    0.0000 </r>
       <r>   68.6399    0.0000 </r>
       <r>   69.3891    0.0000 </r>
       <r>   70.0565    0.0000 </r>
       <r>   71.5809    0.0000 </r>
       <r>   71.6585    0.0000 </r>
       <r>   73.6193    0.0000 </r>
       <r>   73.7744    0.0000 </r>
       <r>   75.5340    0.0000 </r>
       <r>   75.6509    0.0000 </r>
       <r>   75.8366    0.0000 </r>
       <r>   79.3800    0.0000 </r>
       <r>   79.6983    0.0000 </r>
       <r>   81.7907    0.0000 </r>
       <r>   83.3082    0.0000 </r>
      </set>
      <set comment="kpoint 7">
       <r>  -36.8205    1.0000 </r>
       <r>  -36.8020    1.0000 </r>
       <r>  -36.7772    1.0000 </r>
       <r>   -5.5124    1.0000 </r>
       <r>    0.4452    1.0000 </r>
       <r>    2.3867    1.0000 </r>
       <r>    3.9875    1.0000 </r>
       <r>    8.6609    0.0000 </r>
       <r>   10.4763    0.0000 </r>
       <r>   11.2135    0.0000 </r>
       <r>   13.4367    0.0000 </r>
       <r>   16.2332    0.0000 </r>
       <r>   16.7784    0.0000 </r>
       <r>   18.5944    0.0000 </r>
       <r>   20.6288    0.0000 </r>
       <r>   22.2945    0.0000 </r>
       <r>   22.8132    0.0000 </r>
       <r>   26.0163    0.0000 </r>
       <r>   27.0473    0.0000 </r>
       <r>   28.7123    0.0000 </r>
       <r>   31.6198    0.0000 </r>
       <r>   33.5261    0.0000 </r>
       <r>   34.4699    0.0000 </r>
       <r>   35.8122    0.0000 </r>
       <r>   36.4046    0.0000 </r>
       <r>   40.7190    0.0000 </r>
       <r>   41.2667    0.0000 </r>
       <r>   41.5755    0.0000 </r>
       <r>   45.1215    0.0000 </r>
       <r>   45.2623    0.0000 </r>
       <r>   45.8952    0.0000 </r>
       <r>   47.2998    0.0000 </r>
       <r>   50.0116    0.0000 </r>
       <r>   50.1632    0.0000 </r>
       <r>   50.8424    0.0000 </r>
       <r>   52.3903    0.0000 </r>
       <r>   52.8683    0.0000 </r>
       <r>   53.4819    0.0000 </r>
       <r>   55.7218    0.0000 </r>
       <r>   56.4737    0.0000 </r>
       <r>   56.5773    0.0000 </r>
       <r>   58.2106    0.0000 </r>
       <r>   58.7572    0.0000 </r>
       <r>   60.0835    0.0000 </r>
       <r>   62.3549    0.0000 </r>
       <r>   62.7291    0.0000 </r>
       <r>   64.9310    0.0000 </r>
       <r>   65.7438    0.0000 </r>
       <r>   67.1609    0.0000 </r>
       <r>   68.5872    0.0000 </r>
       <r>   70.1870    0.0000 </r>
       <r>   70.2063    0.0000 </r>
       <r>   71.2014    0.0000 </r>
       <r>   71.8510    0.0000 </r>
       <r>   73.3532    0.0000 </r>
       <r>   75.2806    0.0000 </r>
       <r>   76.1799    0.0000 </r>
       <r>   77.3371    0.0000 </r>
       <r>   77.9004    0.0000 </r>
       <r>   80.6130    0.0000 </r>
       <r>   80.6328    0.0000 </r>
       <r>   80.6515    0.0000 </r>
       <r>   82.8307    0.0000 </r>
       <r>   84.4536    0.0000 </r>
      </set>
      <set comment="kpoint 8">
       <r>  -36.8293    1.0000 </r>
       <r>  -36.8056    1.0000 </r>
       <r>  -36.7758    1.0000 </r>
       <r>   -3.9817    1.0000 </r>
       <r>   -1.8506    1.0000 </r>
       <r>    1.8391    1.0000 </r>
       <r>    5.2388    0.0000 </r>
       <r>    8.4995    0.0000 </r>
       <r>    9.8011    0.0000 </r>
       <r>   10.7480    0.0000 </r>
       <r>   12.8440    0.0000 </r>
       <r>   15.9174    0.0000 </r>
       <r>   17.7827    0.0000 </r>
       <r>   18.7501    0.0000 </r>
       <r>   21.7362    0.0000 </r>
       <r>   21.8764    0.0000 </r>
       <r>   22.8501    0.0000 </r>
       <r>   25.4796    0.0000 </r>
       <r>   28.9715    0.0000 </r>
       <r>   30.3038    0.0000 </r>
       <r>   31.0299    0.0000 </r>
       <r>   35.0503    0.0000 </r>
       <r>   35.3767    0.0000 </r>
       <r>   38.0162    0.0000 </r>
       <r>   39.4158    0.0000 </r>
       <r>   39.9401    0.0000 </r>
       <r>   41.5608    0.0000 </r>
       <r>   42.4908    0.0000 </r>
       <r>   43.8432    0.0000 </r>
       <r>   43.8467    0.0000 </r>
       <r>   46.2377    0.0000 </r>
       <r>   46.4514    0.0000 </r>
       <r>   46.7857    0.0000 </r>
       <r>   46.8987    0.0000 </r>
       <r>   49.6296    0.0000 </r>
       <r>   50.2327    0.0000 </r>
       <r>   51.7991    0.0000 </r>
       <r>   51.9490    0.0000 </r>
       <r>   53.6984    0.0000 </r>
       <r>   54.1038    0.0000 </r>
       <r>   56.1874    0.0000 </r>
       <r>   57.3914    0.0000 </r>
       <r>   58.4184    0.0000 </r>
       <r>   58.8384    0.0000 </r>
       <r>   59.9809    0.0000 </r>
       <r>   64.2908    0.0000 </r>
       <r>   64.3114    0.0000 </r>
       <r>   65.1900    0.0000 </r>
       <r>   68.0426    0.0000 </r>
       <r>   69.5562    0.0000 </r>
       <r>   71.1874    0.0000 </r>
       <r>   71.4722    0.0000 </r>
       <r>   73.0578    0.0000 </r>
       <r>   75.2879    0.0000 </r>
       <r>   75.6614    0.0000 </r>
       <r>   76.8980    0.0000 </r>
       <r>   76.8999    0.0000 </r>
       <r>   79.2536    0.0000 </r>
       <r>   79.6268    0.0000 </r>
       <r>   80.9820    0.0000 </r>
       <r>   81.6940    0.0000 </r>
       <r>   83.0346    0.0000 </r>
       <r>   83.2962    0.0000 </r>
       <r>   83.5725    0.0000 </r>
      </set>
      <set comment="kpoint 9">
       <r>  -36.8249    1.0000 </r>
       <r>  -36.8098    1.0000 </r>
       <r>  -36.7758    1.0000 </r>
       <r>   -4.2245    1.0000 </r>
       <r>   -0.6664    1.0000 </r>
       <r>    0.4626    1.0000 </r>
       <r>    5.1598    0.0334 </r>
       <r>    8.8168    0.0000 </r>
       <r>    9.9067    0.0000 </r>
       <r>   12.1288    0.0000 </r>
       <r>   13.4136    0.0000 </r>
       <r>   14.9216    0.0000 </r>
       <r>   16.3755    0.0000 </r>
       <r>   17.3070    0.0000 </r>
       <r>   21.5881    0.0000 </r>
       <r>   22.9191    0.0000 </r>
       <r>   24.5010    0.0000 </r>
       <r>   27.0030    0.0000 </r>
       <r>   27.5844    0.0000 </r>
       <r>   28.8174    0.0000 </r>
       <r>   32.7185    0.0000 </r>
       <r>   34.2760    0.0000 </r>
       <r>   35.1297    0.0000 </r>
       <r>   38.6233    0.0000 </r>
       <r>   39.5566    0.0000 </r>
       <r>   39.7906    0.0000 </r>
       <r>   40.5636    0.0000 </r>
       <r>   41.4499    0.0000 </r>
       <r>   43.3165    0.0000 </r>
       <r>   44.5006    0.0000 </r>
       <r>   45.0116    0.0000 </r>
       <r>   45.4793    0.0000 </r>
       <r>   47.7545    0.0000 </r>
       <r>   50.5000    0.0000 </r>
       <r>   51.3206    0.0000 </r>
       <r>   51.6555    0.0000 </r>
       <r>   51.8458    0.0000 </r>
       <r>   52.7560    0.0000 </r>
       <r>   53.1850    0.0000 </r>
       <r>   53.5843    0.0000 </r>
       <r>   54.9490    0.0000 </r>
       <r>   56.2395    0.0000 </r>
       <r>   57.6123    0.0000 </r>
       <r>   58.5020    0.0000 </r>
       <r>   59.3924    0.0000 </r>
       <r>   60.9817    0.0000 </r>
       <r>   64.3996    0.0000 </r>
       <r>   65.9316    0.0000 </r>
       <r>   67.9678    0.0000 </r>
       <r>   69.3097    0.0000 </r>
       <r>   70.8476    0.0000 </r>
       <r>   71.7551    0.0000 </r>
       <r>   73.9007    0.0000 </r>
       <r>   75.5131    0.0000 </r>
       <r>   76.8363    0.0000 </r>
       <r>   77.7782    0.0000 </r>
       <r>   78.3899    0.0000 </r>
       <r>   78.6318    0.0000 </r>
       <r>   79.7529    0.0000 </r>
       <r>   79.9397    0.0000 </r>
       <r>   83.0669    0.0000 </r>
       <r>   83.4614    0.0000 </r>
       <r>   85.6882    0.0000 </r>
       <r>   86.2202    0.0000 </r>
      </set>
      <set comment="kpoint 10">
       <r>  -36.8252    1.0000 </r>
       <r>  -36.8146    1.0000 </r>
       <r>  -36.7752    1.0000 </r>
       <r>   -2.7821    1.0000 </r>
       <r>   -2.1629    1.0000 </r>
       <r>   -0.1269    1.0000 </r>
       <r>    6.2202    0.0000 </r>
       <r>    7.5735    0.0000 </r>
       <r>   11.0162    0.0000 </r>
       <r>   11.3999    0.0000 </r>
       <r>   13.7804    0.0000 </r>
       <r>   14.2964    0.0000 </r>
       <r>   16.7417    0.0000 </r>
       <r>   18.2222    0.0000 </r>
       <r>   18.9602    0.0000 </r>
       <r>   24.0252    0.0000 </r>
       <r>   25.0501    0.0000 </r>
       <r>   27.7005    0.0000 </r>
       <r>   27.8357    0.0000 </r>
       <r>   29.7678    0.0000 </r>
       <r>   33.8497    0.0000 </r>
       <r>   33.9139    0.0000 </r>
       <r>   37.3602    0.0000 </r>
       <r>   37.4933    0.0000 </r>
       <r>   38.3119    0.0000 </r>
       <r>   40.2665    0.0000 </r>
       <r>   40.2942    0.0000 </r>
       <r>   40.9058    0.0000 </r>
       <r>   41.3626    0.0000 </r>
       <r>   46.2478    0.0000 </r>
       <r>   46.8945    0.0000 </r>
       <r>   47.3729    0.0000 </r>
       <r>   48.4689    0.0000 </r>
       <r>   49.2287    0.0000 </r>
       <r>   49.5497    0.0000 </r>
       <r>   49.6343    0.0000 </r>
       <r>   50.3697    0.0000 </r>
       <r>   52.2516    0.0000 </r>
       <r>   53.5179    0.0000 </r>
       <r>   53.8449    0.0000 </r>
       <r>   54.5749    0.0000 </r>
       <r>   54.6490    0.0000 </r>
       <r>   54.9911    0.0000 </r>
       <r>   56.8686    0.0000 </r>
       <r>   58.2555    0.0000 </r>
       <r>   61.9167    0.0000 </r>
       <r>   64.9111    0.0000 </r>
       <r>   65.9203    0.0000 </r>
       <r>   66.4544    0.0000 </r>
       <r>   71.3317    0.0000 </r>
       <r>   71.7412    0.0000 </r>
       <r>   71.9683    0.0000 </r>
       <r>   75.3865    0.0000 </r>
       <r>   76.4699    0.0000 </r>
       <r>   77.8748    0.0000 </r>
       <r>   78.1283    0.0000 </r>
       <r>   79.7561    0.0000 </r>
       <r>   80.4566    0.0000 </r>
       <r>   82.0233    0.0000 </r>
       <r>   82.9446    0.0000 </r>
       <r>   83.0117    0.0000 </r>
       <r>   83.4465    0.0000 </r>
       <r>   84.1206    0.0000 </r>
       <r>   86.3763    0.0000 </r>
      </set>
      <set comment="kpoint 11">
       <r>  -36.7926    1.0000 </r>
       <r>  -36.7926    1.0000 </r>
       <r>  -36.7832    1.0000 </r>
       <r>   -7.2097    1.0000 </r>
       <r>    1.0003    1.0000 </r>
       <r>    5.4647    0.0000 </r>
       <r>    5.4648    0.0000 </r>
       <r>    8.5117    0.0000 </r>
       <r>   11.3760    0.0000 </r>
       <r>   11.3761    0.0000 </r>
       <r>   13.0561    0.0000 </r>
       <r>   14.9803    0.0000 </r>
       <r>   17.8691    0.0000 </r>
       <r>   19.9197    0.0000 </r>
       <r>   19.9197    0.0000 </r>
       <r>   22.2898    0.0000 </r>
       <r>   22.2898    0.0000 </r>
       <r>   23.9702    0.0000 </r>
       <r>   27.0840    0.0000 </r>
       <r>   27.0840    0.0000 </r>
       <r>   27.1524    0.0000 </r>
       <r>   27.1524    0.0000 </r>
       <r>   28.5139    0.0000 </r>
       <r>   31.8792    0.0000 </r>
       <r>   40.0004    0.0000 </r>
       <r>   40.0005    0.0000 </r>
       <r>   40.2319    0.0000 </r>
       <r>   43.7559    0.0000 </r>
       <r>   47.9284    0.0000 </r>
       <r>   49.9607    0.0000 </r>
       <r>   49.9608    0.0000 </r>
       <r>   52.1157    0.0000 </r>
       <r>   52.1158    0.0000 </r>
       <r>   52.6294    0.0000 </r>
       <r>   52.6295    0.0000 </r>
       <r>   54.7360    0.0000 </r>
       <r>   55.5102    0.0000 </r>
       <r>   58.0084    0.0000 </r>
       <r>   58.0085    0.0000 </r>
       <r>   58.6127    0.0000 </r>
       <r>   61.9131    0.0000 </r>
       <r>   61.9131    0.0000 </r>
       <r>   63.3468    0.0000 </r>
       <r>   63.4975    0.0000 </r>
       <r>   63.4975    0.0000 </r>
       <r>   63.5435    0.0000 </r>
       <r>   63.6721    0.0000 </r>
       <r>   66.3817    0.0000 </r>
       <r>   66.3817    0.0000 </r>
       <r>   67.3857    0.0000 </r>
       <r>   67.3857    0.0000 </r>
       <r>   69.0158    0.0000 </r>
       <r>   69.9187    0.0000 </r>
       <r>   69.9187    0.0000 </r>
       <r>   71.1093    0.0000 </r>
       <r>   71.7713    0.0000 </r>
       <r>   71.7713    0.0000 </r>
       <r>   75.2038    0.0000 </r>
       <r>   75.2039    0.0000 </r>
       <r>   76.0774    0.0000 </r>
       <r>   77.3688    0.0000 </r>
       <r>   78.6575    0.0000 </r>
       <r>   78.6576    0.0000 </r>
       <r>   83.3382    0.0000 </r>
      </set>
      <set comment="kpoint 12">
       <r>  -36.7984    1.0000 </r>
       <r>  -36.7940    1.0000 </r>
       <r>  -36.7823    1.0000 </r>
       <r>   -6.9398    1.0000 </r>
       <r>    1.2726    1.0000 </r>
       <r>    4.2136    1.0000 </r>
       <r>    4.8834    1.0000 </r>
       <r>    8.7119    0.0000 </r>
       <r>   11.1893    0.0000 </r>
       <r>   12.5045    0.0000 </r>
       <r>   12.9025    0.0000 </r>
       <r>   14.6766    0.0000 </r>
       <r>   18.9077    0.0000 </r>
       <r>   18.9765    0.0000 </r>
       <r>   19.2783    0.0000 </r>
       <r>   21.4639    0.0000 </r>
       <r>   23.3466    0.0000 </r>
       <r>   25.3079    0.0000 </r>
       <r>   25.5793    0.0000 </r>
       <r>   25.7269    0.0000 </r>
       <r>   28.6251    0.0000 </r>
       <r>   29.5826    0.0000 </r>
       <r>   30.9352    0.0000 </r>
       <r>   32.4405    0.0000 </r>
       <r>   37.1906    0.0000 </r>
       <r>   38.9557    0.0000 </r>
       <r>   42.3405    0.0000 </r>
       <r>   44.3445    0.0000 </r>
       <r>   46.4970    0.0000 </r>
       <r>   47.2411    0.0000 </r>
       <r>   49.8423    0.0000 </r>
       <r>   49.9727    0.0000 </r>
       <r>   51.9129    0.0000 </r>
       <r>   53.3178    0.0000 </r>
[...]
       </set>
       <set comment="band 4">
        <r>  0.0000  0.0007  0.0000  0.0021  0.0000  0.0030  0.0000  0.0089  0.0001 </r>
        <r>  0.2247  0.0307  0.0005  0.0407  0.0000  0.0000  0.0000  0.0000  0.0000 </r>
        <r>  0.2247  0.0307  0.0005  0.0407  0.0000  0.0000  0.0000  0.0000  0.0000 </r>
       </set>
       <set comment="band 5">
        <r>  0.0024  0.0009  0.0149  0.0003  0.0002  0.0043  0.0001  0.0014  0.0001 </r>
        <r>  0.1424  0.0335  0.0003  0.0997  0.0000  0.0000  0.0000  0.0000  0.0000 </r>
        <r>  0.1424  0.0335  0.0003  0.0997  0.0000  0.0000  0.0000  0.0000  0.0000 </r>
       </set>
       <set comment="band 6">
        <r>  0.0023  0.0008  0.0218  0.0003  0.0001  0.0043  0.0002  0.0014  0.0000 </r>
        <r>  0.0455  0.1520  0.0001  0.0665  0.0000  0.0000  0.0000  0.0000  0.0000 </r>
        <r>  0.0455  0.1520  0.0001  0.0665  0.0000  0.0000  0.0000  0.0000  0.0000 </r>
       </set>
       <set comment="band 7">
        <r>  0.0000  0.0189  0.0000  0.0566  0.0016  0.0004  0.0000  0.0013  0.0048 </r>
        <r>  0.0029  0.0006  0.1280  0.0008  0.0000  0.0000  0.0000  0.0000  0.0000 </r>
        <r>  0.0029  0.0006  0.1280  0.0008  0.0000  0.0000  0.0000  0.0000  0.0000 </r>
       </set>
       <set comment="band 8">
        <r>  0.0241  0.0408  0.0004  0.0136  0.0125  0.0009  0.0000  0.0003  0.0042 </r>
        <r>  0.0018  0.0009  0.1237  0.0011  0.0000  0.0000  0.0000  0.0000  0.0000 </r>
        <r>  0.0018  0.0009  0.1237  0.0011  0.0000  0.0000  0.0000  0.0000  0.0000 </r>
       </set>
       <set comment="band 9">
        <r>  0.3285  0.0113  0.0042  0.0038  0.0005  0.0002  0.0007  0.0001  0.0002 </r>
        <r>  0.0000  0.0014  0.0064  0.0009  0.0000  0.0000  0.0000  0.0000  0.0000 </r>
        <r>  0.0000  0.0014  0.0064  0.0009  0.0000  0.0000  0.0000  0.0000  0.0000 </r>
       </set>
       <set comment="band 10">
        <r>  0.0007  0.0001  0.0482  0.0000  0.0012  0.0008  0.0012  0.0003  0.0004 </r>
        <r>  0.0787  0.1054  0.0015  0.0416  0.0000  0.0000  0.0000  0.0000  0.0000 </r>
        <r>  0.0787  0.1054  0.0015  0.0416  0.0000  0.0000  0.0000  0.0000  0.0000 </r>
       </set>
       <set comment="band 11">
        <r>  0.0000  0.0064  0.0000  0.0193  0.0013  0.0006  0.0000  0.0017  0.0038 </r>
        <r>  0.0267  0.1020  0.0530  0.0977  0.0000  0.0000  0.0000  0.0000  0.0000 </r>
        <r>  0.0267  0.1020  0.0530  0.0977  0.0000  0.0000  0.0000  0.0000  0.0000 </r>
       </set>
       <set comment="band 12">
        <r>  0.0053  0.0080  0.1043  0.0027  0.0020  0.0002  0.0000  0.0001  0.0007 </r>
        <r>  0.0155  0.0422  0.0237  0.1261  0.0000  0.0000  0.0000  0.0000  0.0000 </r>
        <r>  0.0155  0.0422  0.0237  0.1261  0.0000  0.0000  0.0000  0.0000  0.0000 </r>
       </set>
       <set comment="band 13">
        <r>  0.0000  0.0301  0.0000  0.0902  0.0001  0.0013  0.0000  0.0038  0.0003 </r>
        <r>  0.0397  0.0341  0.1561  0.0249  0.0000  0.0000  0.0000  0.0000  0.0000 </r>
        <r>  0.0397  0.0341  0.1561  0.0249  0.0000  0.0000  0.0000  0.0000  0.0000 </r>
       </set>
       <set comment="band 14">
        <r>  0.0075  0.1349  0.0087  0.0450  0.0001  0.0029  0.0016  0.0010  0.0000 </r>
        <r>  0.0160  0.0040  0.1824  0.0112  0.0000  0.0000  0.0000  0.0000  0.0000 </r>
        <r>  0.0160  0.0040  0.1824  0.0112  0.0000  0.0000  0.0000  0.0000  0.0000 </r>
       </set>
       <set comment="band 15">
        <r>  0.0082  0.0364  0.0072  0.0121  0.1148  0.0196  0.0843  0.0065  0.0383 </r>
        <r>  0.0115  0.0004  0.0040  0.0007  0.0000  0.0000  0.0000  0.0000  0.0000 </r>
        <r>  0.0115  0.0004  0.0040  0.0007  0.0000  0.0000  0.0000  0.0000  0.0000 </r>
       </set>
       <set comment="band 16">
        <r>  0.0000  0.0008  0.0000  0.0025  0.0000  0.0105  0.0000  0.0315  0.0001 </r>
        <r>  0.0012  0.1719  0.0052  0.1940  0.0000  0.0000  0.0000  0.0000  0.0000 </r>
        <r>  0.0012  0.1719  0.0052  0.1940  0.0000  0.0000  0.0000  0.0000  0.0000 </r>
       </set>
       <set comment="band 17">
        <r>  0.0000  0.0119  0.0000  0.0357  0.0253  0.0498  0.0000  0.1493  0.0758 </r>
        <r>  0.0498  0.0221  0.0138  0.0234  0.0000  0.0000  0.0000  0.0000  0.0000 </r>
        <r>  0.0498  0.0221  0.0138  0.0234  0.0000  0.0000  0.0000  0.0000  0.0000 </r>
       </set>
       <set comment="band 18">
        <r>  0.0022  0.0010  0.0119  0.0003  0.0025  0.1826  0.1688  0.0609  0.0008 </r>
        <r>  0.0184  0.0146  0.0047  0.0074  0.0000  0.0000  0.0000  0.0000  0.0000 </r>
        <r>  0.0184  0.0146  0.0047  0.0074  0.0000  0.0000  0.0000  0.0000  0.0000 </r>
       </set>
       <set comment="band 19">
        <r>  0.0071  0.0080  0.0592  0.0027  0.0713  0.0789  0.1140  0.0263  0.0238 </r>
        <r>  0.0094  0.0054  0.0196  0.0079  0.0000  0.0000  0.0000  0.0000  0.0000 </r>
        <r>  0.0094  0.0054  0.0196  0.0079  0.0000  0.0000  0.0000  0.0000  0.0000 </r>
       </set>
       <set comment="band 20">
        <r>  0.0000  0.0121  0.0000  0.0363  0.0649  0.0266  0.0000  0.0798  0.1946 </r>
        <r>  0.0182  0.0143  0.0047  0.0052  0.0000  0.0000  0.0000  0.0000  0.0000 </r>
        <r>  0.0182  0.0143  0.0047  0.0052  0.0000  0.0000  0.0000  0.0000  0.0000 </r>
       </set>
       <set comment="band 21">
        <r>  0.0587  0.0143  0.1197  0.0048  0.0123  0.0124  0.0570  0.0041  0.0041 </r>
        <r>  0.0008  0.0082  0.0000  0.0028  0.0000  0.0000  0.0000  0.0000  0.0000 </r>
        <r>  0.0008  0.0082  0.0000  0.0028  0.0000  0.0000  0.0000  0.0000  0.0000 </r>
       </set>
       <set comment="band 22">
        <r>  0.1598  0.0183  0.0786  0.0061  0.0001  0.0067  0.1447  0.0022  0.0000 </r>
        <r>  0.0001  0.0031  0.0020  0.0017  0.0000  0.0000  0.0000  0.0000  0.0000 </r>
        <r>  0.0001  0.0031  0.0020  0.0017  0.0000  0.0000  0.0000  0.0000  0.0000 </r>
       </set>
       <set comment="band 23">
        <r>  0.0015  0.0005  0.0076  0.0002  0.0021  0.0198  0.0011  0.0066  0.0007 </r>
        <r>  0.0294  0.0288  0.0022  0.0422  0.0000  0.0000  0.0000  0.0000  0.0000 </r>
        <r>  0.0294  0.0288  0.0022  0.0422  0.0000  0.0000  0.0000  0.0000  0.0000 </r>
       </set>
       <set comment="band 24">
        <r>  0.0000  0.0015  0.0000  0.0045  0.0002  0.0431  0.0000  0.1292  0.0006 </r>
        <r>  0.0007  0.0469  0.0002  0.0427  0.0000  0.0000  0.0000  0.0000  0.0000 </r>
        <r>  0.0007  0.0469  0.0002  0.0427  0.0000  0.0000  0.0000  0.0000  0.0000 </r>
       </set>
       <set comment="band 25">
        <r>  0.0002  0.0499  0.0092  0.0166  0.2592  0.0034  0.0139  0.0011  0.0864 </r>
        <r>  0.0016  0.0002  0.0313  0.0001  0.0000  0.0000  0.0000  0.0000  0.0000 </r>
        <r>  0.0016  0.0002  0.0313  0.0001  0.0000  0.0000  0.0000  0.0000  0.0000 </r>
       </set>
       <set comment="band 26">
        <r>  0.0000  0.0016  0.0000  0.0047  0.1337  0.0000  0.0000  0.0000  0.4013 </r>
        <r>  0.0021  0.0001  0.0310  0.0001  0.0000  0.0000  0.0000  0.0000  0.0000 </r>
        <r>  0.0021  0.0001  0.0310  0.0001  0.0000  0.0000  0.0000  0.0000  0.0000 </r>
       </set>
       <set comment="band 27">
        <r>  0.0003  0.0001  0.0326  0.0000  0.0605  0.1639  0.0003  0.0546  0.0202 </r>
        <r>  0.0089  0.0014  0.0012  0.0006  0.0000  0.0000  0.0000  0.0000  0.0000 </r>
        <r>  0.0089  0.0014  0.0012  0.0006  0.0000  0.0000  0.0000  0.0000  0.0000 </r>
       </set>
       <set comment="band 28">
        <r>  0.0041  0.0048  0.0023  0.0016  0.0126  0.0070  0.0350  0.0023  0.0042 </r>
        <r>  0.0143  0.0178  0.0028  0.0062  0.0000  0.0000  0.0000  0.0000  0.0000 </r>
        <r>  0.0143  0.0178  0.0028  0.0062  0.0000  0.0000  0.0000  0.0000  0.0000 </r>
       </set>
       <set comment="band 29">
        <r>  0.0000  0.0024  0.0000  0.0073  0.0001  0.0374  0.0000  0.1122  0.0002 </r>
        <r>  0.0298  0.0144  0.0033  0.0048  0.0000  0.0000  0.0000  0.0000  0.0000 </r>
        <r>  0.0298  0.0144  0.0033  0.0048  0.0000  0.0000  0.0000  0.0000  0.0000 </r>
       </set>
       <set comment="band 30">
        <r>  0.0068  0.0338  0.0229  0.0113  0.0003  0.0308  0.2009  0.0103  0.0001 </r>
        <r>  0.0001  0.0031  0.0001  0.0011  0.0000  0.0000  0.0000  0.0000  0.0000 </r>
        <r>  0.0001  0.0031  0.0001  0.0011  0.0000  0.0000  0.0000  0.0000  0.0000 </r>
       </set>
       <set comment="band 31">
        <r>  0.0000  0.0000  0.0000  0.0000  0.0076  0.0002  0.0000  0.0005  0.0227 </r>
        <r>  0.0074  0.0004  0.0085  0.0004  0.0000  0.0000  0.0000  0.0000  0.0000 </r>
        <r>  0.0074  0.0004  0.0085  0.0004  0.0000  0.0000  0.0000  0.0000  0.0000 </r>
       </set>
       <set comment="band 32">
        <r>  0.0003  0.0406  0.1184  0.0135  0.0557  0.0009  0.0138  0.0003  0.0186 </r>
        <r>  0.0006  0.0050  0.0141  0.0049  0.0000  0.0000  0.0000  0.0000  0.0000 </r>
        <r>  0.0006  0.0050  0.0141  0.0049  0.0000  0.0000  0.0000  0.0000  0.0000 </r>
       </set>
       <set comment="band 33">
        <r>  0.0000  0.1473  0.0000  0.4420  0.0072  0.0034  0.0000  0.0102  0.0216 </r>
        <r>  0.0043  0.0004  0.0144  0.0001  0.0000  0.0000  0.0000  0.0000  0.0000 </r>
        <r>  0.0043  0.0004  0.0144  0.0001  0.0000  0.0000  0.0000  0.0000  0.0000 </r>
       </set>
       <set comment="band 34">
        <r>  0.0442  0.1174  0.1241  0.0391  0.1232  0.0581  0.0203  0.0194  0.0411 </r>
        <r>  0.0062  0.0052  0.0029  0.0089  0.0000  0.0000  0.0000  0.0000  0.0000 </r>
        <r>  0.0062  0.0052  0.0029  0.0089  0.0000  0.0000  0.0000  0.0000  0.0000 </r>
       </set>
       <set comment="band 35">
        <r>  0.0009  0.1175  0.0188  0.0392  0.1223  0.0191  0.1132  0.0064  0.0408 </r>
        <r>  0.0258  0.0005  0.0040  0.0008  0.0000  0.0000  0.0000  0.0000  0.0000 </r>
        <r>  0.0258  0.0005  0.0040  0.0008  0.0000  0.0000  0.0000  0.0000  0.0000 </r>
       </set>
       <set comment="band 36">
        <r>  0.0000  0.0134  0.0000  0.0402  0.0018  0.0317  0.0000  0.0950  0.0055 </r>
        <r>  0.0258  0.0039  0.0102  0.0017  0.0000  0.0000  0.0000  0.0000  0.0000 </r>
        <r>  0.0258  0.0039  0.0102  0.0017  0.0000  0.0000  0.0000  0.0000  0.0000 </r>
       </set>
       <set comment="band 37">
        <r>  0.0008  0.0363  0.0474  0.0121  0.0227  0.0526  0.0871  0.0175  0.0076 </r>
        <r>  0.0242  0.0138  0.0047  0.0085  0.0000  0.0000  0.0000  0.0000  0.0000 </r>
        <r>  0.0242  0.0138  0.0047  0.0085  0.0000  0.0000  0.0000  0.0000  0.0000 </r>
       </set>
       <set comment="band 38">
        <r>  0.0000  0.0000  0.0000  0.0000  0.0213  0.0094  0.0000  0.0281  0.0640 </r>
        <r>  0.0015  0.0001  0.0149  0.0002  0.0000  0.0000  0.0000  0.0000  0.0000 </r>
        <r>  0.0015  0.0001  0.0149  0.0002  0.0000  0.0000  0.0000  0.0000  0.0000 </r>
       </set>
       <set comment="band 39">
        <r>  0.0000  0.0076  0.0000  0.0229  0.1159  0.0234  0.0000  0.0702  0.3477 </r>
        <r>  0.0143  0.0002  0.0679  0.0001  0.0000  0.0000  0.0000  0.0000  0.0000 </r>
        <r>  0.0143  0.0002  0.0679  0.0001  0.0000  0.0000  0.0000  0.0000  0.0000 </r>
       </set>
       <set comment="band 40">
        <r>  0.0923  0.0122  0.0384  0.0041  0.2219  0.0020  0.0642  0.0007  0.0739 </r>
        <r>  0.0043  0.0003  0.0496  0.0007  0.0000  0.0000  0.0000  0.0000  0.0000 </r>
        <r>  0.0043  0.0003  0.0496  0.0007  0.0000  0.0000  0.0000  0.0000  0.0000 </r>
       </set>
       <set comment="band 41">
        <r>  0.0015  0.0310  0.0356  0.0103  0.0001  0.6428  0.0005  0.2143  0.0000 </r>
        <r>  0.0007  0.0302  0.0004  0.0436  0.0000  0.0000  0.0000  0.0000  0.0000 </r>
        <r>  0.0007  0.0302  0.0004  0.0436  0.0000  0.0000  0.0000  0.0000  0.0000 </r>
       </set>
       <set comment="band 42">
        <r>  0.0000  0.0077  0.0000  0.0232  0.0019  0.2515  0.0000  0.7545  0.0058 </r>
        <r>  0.0168  0.0233  0.0019  0.0393  0.0000  0.0000  0.0000  0.0000  0.0000 </r>
        <r>  0.0168  0.0233  0.0019  0.0393  0.0000  0.0000  0.0000  0.0000  0.0000 </r>
       </set>
       <set comment="band 43">
        <r>  0.0645  0.0403  0.0144  0.0134  0.1437  0.0542  0.0435  0.0181  0.0479 </r>
        <r>  0.0052  0.0021  0.0469  0.0008  0.0000  0.0000  0.0000  0.0000  0.0000 </r>
        <r>  0.0052  0.0021  0.0469  0.0008  0.0000  0.0000  0.0000  0.0000  0.0000 </r>
       </set>
       <set comment="band 44">
        <r>  0.0000  0.0006  0.0000  0.0019  0.0103  0.0166  0.0000  0.0498  0.0309 </r>
        <r>  0.0085  0.0313  0.0161  0.0206  0.0000  0.0000  0.0000  0.0000  0.0000 </r>
        <r>  0.0085  0.0313  0.0161  0.0206  0.0000  0.0000  0.0000  0.0000  0.0000 </r>
       </set>
       <set comment="band 45">
        <r>  0.0000  0.0056  0.0000  0.0168  0.0022  0.0001  0.0000  0.0003  0.0067 </r>
        <r>  0.0036  0.0069  0.0084  0.0133  0.0000  0.0000  0.0000  0.0000  0.0000 </r>
        <r>  0.0036  0.0069  0.0084  0.0133  0.0000  0.0000  0.0000  0.0000  0.0000 </r>
       </set>
       <set comment="band 46">
        <r>  0.0001  0.0079  0.0351  0.0026  0.0001  0.0012  0.3162  0.0004  0.0000 </r>
        <r>  0.0009  0.0125  0.0033  0.0078  0.0000  0.0000  0.0000  0.0000  0.0000 </r>
        <r>  0.0009  0.0125  0.0033  0.0078  0.0000  0.0000  0.0000  0.0000  0.0000 </r>
       </set>
       <set comment="band 47">
        <r>  0.0293  0.0876  0.0005  0.0292  0.0914  0.0718  0.0156  0.0239  0.0304 </r>
        <r>  0.0001  0.0091  0.0036  0.0044  0.0000  0.0000  0.0000  0.0000  0.0000 </r>
        <r>  0.0001  0.0091  0.0036  0.0044  0.0000  0.0000  0.0000  0.0000  0.0000 </r>
       </set>
       <set comment="band 48">
        <r>  0.0000  0.0008  0.0000  0.0023  0.0001  0.0079  0.0000  0.0236  0.0002 </r>
        <r>  0.0026  0.0297  0.0079  0.0105  0.0000  0.0000  0.0000  0.0000  0.0000 </r>
        <r>  0.0026  0.0297  0.0079  0.0105  0.0000  0.0000  0.0000  0.0000  0.0000 </r>
       </set>
       <set comment="band 49">
        <r>  0.0001  0.0062  0.0250  0.0021  0.0105  0.0582  0.0028  0.0194  0.0035 </r>
        <r>  0.0147  0.0487  0.0098  0.0291  0.0000  0.0000  0.0000  0.0000  0.0000 </r>
        <r>  0.0147  0.0487  0.0098  0.0291  0.0000  0.0000  0.0000  0.0000  0.0000 </r>
       </set>
       <set comment="band 50">
        <r>  0.0000  0.0020  0.0000  0.0060  0.0302  0.0124  0.0000  0.0373  0.0907 </r>
        <r>  0.0003  0.0049  0.0016  0.0024  0.0000  0.0000  0.0000  0.0000  0.0000 </r>
        <r>  0.0003  0.0049  0.0016  0.0024  0.0000  0.0000  0.0000  0.0000  0.0000 </r>
       </set>
       <set comment="band 51">
        <r>  0.0097  0.0023  0.1167  0.0008  0.0011  0.0055  0.5220  0.0018  0.0004 </r>
        <r>  0.0141  0.0280  0.0040  0.0221  0.0000  0.0000  0.0000  0.0000  0.0000 </r>
        <r>  0.0141  0.0280  0.0040  0.0221  0.0000  0.0000  0.0000  0.0000  0.0000 </r>
       </set>
       <set comment="band 52">
        <r>  0.0000  0.0671  0.0000  0.2014  0.0003  0.0111  0.0000  0.0332  0.0010 </r>
        <r>  0.0070  0.0043  0.0056  0.0023  0.0000  0.0000  0.0000  0.0000  0.0000 </r>
        <r>  0.0070  0.0043  0.0056  0.0023  0.0000  0.0000  0.0000  0.0000  0.0000 </r>
       </set>
       <set comment="band 53">
        <r>  0.0018  0.0002  0.0202  0.0001  0.1487  0.0189  0.0458  0.0063  0.0496 </r>
        <r>  0.0161  0.0004  0.0038  0.0012  0.0000  0.0000  0.0000  0.0000  0.0000 </r>
        <r>  0.0161  0.0004  0.0038  0.0012  0.0000  0.0000  0.0000  0.0000  0.0000 </r>
       </set>
       <set comment="band 54">
        <r>  0.0085  0.0281  0.0290  0.0094  0.0002  0.1126  0.2554  0.0375  0.0001 </r>
        <r>  0.0110  0.0407  0.0000  0.0185  0.0000  0.0000  0.0000  0.0000  0.0000 </r>
        <r>  0.0110  0.0407  0.0000  0.0185  0.0000  0.0000  0.0000  0.0000  0.0000 </r>
       </set>
       <set comment="band 55">
        <r>  0.0000  0.0018  0.0000  0.0055  0.0058  0.0008  0.0000  0.0023  0.0175 </r>
        <r>  0.0321  0.0005  0.0001  0.0002  0.0000  0.0000  0.0000  0.0000  0.0000 </r>
        <r>  0.0321  0.0005  0.0001  0.0002  0.0000  0.0000  0.0000  0.0000  0.0000 </r>
       </set>
       <set comment="band 56">
        <r>  0.0020  0.0070  0.0006  0.0023  0.0013  0.0669  0.1438  0.0223  0.0004 </r>
        <r>  0.0067  0.0301  0.0042  0.0805  0.0000  0.0000  0.0000  0.0000  0.0000 </r>
        <r>  0.0067  0.0301  0.0042  0.0805  0.0000  0.0000  0.0000  0.0000  0.0000 </r>
       </set>
       <set comment="band 57">
        <r>  0.0000  0.0000  0.0000  0.0001  0.0140  0.0031  0.0000  0.0094  0.0421 </r>
        <r>  0.0016  0.0030  0.0216  0.0066  0.0000  0.0000  0.0000  0.0000  0.0000 </r>
        <r>  0.0016  0.0030  0.0216  0.0066  0.0000  0.0000  0.0000  0.0000  0.0000 </r>
       </set>
       <set comment="band 58">
        <r>  0.0171  0.0244  0.0197  0.0081  0.0221  0.0001  0.0124  0.0000  0.0074 </r>
        <r>  0.0012  0.0045  0.0191  0.0098  0.0000  0.0000  0.0000  0.0000  0.0000 </r>
        <r>  0.0012  0.0045  0.0191  0.0098  0.0000  0.0000  0.0000  0.0000  0.0000 </r>
       </set>
       <set comment="band 59">
        <r>  0.0157  0.0408  0.0744  0.0136  0.0056  0.0540  0.1868  0.0180  0.0019 </r>
        <r>  0.0057  0.0040  0.0001  0.0119  0.0000  0.0000  0.0000  0.0000  0.0000 </r>
        <r>  0.0057  0.0040  0.0001  0.0119  0.0000  0.0000  0.0000  0.0000  0.0000 </r>
       </set>
       <set comment="band 60">
        <r>  0.0000  0.0000  0.0000  0.0001  0.0055  0.0001  0.0000  0.0002  0.0166 </r>
        <r>  0.0340  0.0218  0.0061  0.0584  0.0000  0.0000  0.0000  0.0000  0.0000 </r>
        <r>  0.0340  0.0218  0.0061  0.0584  0.0000  0.0000  0.0000  0.0000  0.0000 </r>
       </set>
       <set comment="band 61">
        <r>  0.0426  0.0001  0.0232  0.0000  0.1073  0.0055  0.0195  0.0018  0.0358 </r>
        <r>  0.0020  0.0020  0.0180  0.0060  0.0000  0.0000  0.0000  0.0000  0.0000 </r>
        <r>  0.0020  0.0020  0.0180  0.0060  0.0000  0.0000  0.0000  0.0000  0.0000 </r>
       </set>
       <set comment="band 62">
        <r>  0.0000  0.0002  0.0000  0.0006  0.0585  0.0000  0.0000  0.0001  0.1756 </r>
        <r>  0.0002  0.0007  0.0011  0.0005  0.0000  0.0000  0.0000  0.0000  0.0000 </r>
        <r>  0.0002  0.0007  0.0011  0.0005  0.0000  0.0000  0.0000  0.0000  0.0000 </r>
       </set>
       <set comment="band 63">
        <r>  0.0268  0.0955  0.0531  0.0318  0.2284  0.0044  0.0779  0.0015  0.0761 </r>
        <r>  0.0036  0.0011  0.0074  0.0031  0.0000  0.0000  0.0000  0.0000  0.0000 </r>
        <r>  0.0036  0.0011  0.0074  0.0031  0.0000  0.0000  0.0000  0.0000  0.0000 </r>
       </set>
       <set comment="band 64">
        <r>  0.0066  0.0479  0.0750  0.0160  0.0338  0.0765  0.0060  0.0255  0.0113 </r>
        <r>  0.0145  0.0273  0.0030  0.0105  0.0000  0.0000  0.0000  0.0000  0.0000 </r>
        <r>  0.0145  0.0273  0.0030  0.0105  0.0000  0.0000  0.0000  0.0000  0.0000 </r>
       </set>
      </set>
     </set>
    </set>
   </array>
  </projected>
 </calculation>
 <structure name="finalpos" >
  <crystal>
   <varray name="basis" >
    <v>       3.08577910      -0.00000000       0.00000000 </v>
    <v>      -1.54288955       2.67236313       0.00000000 </v>
    <v>      -0.00000000      -0.00000000       3.49337366 </v>
   </varray>
   <i name="volume">     28.80748507 </i>
   <varray name="rec_basis" >
    <v>       0.32406727       0.18710032       0.00000000 </v>
    <v>       0.00000000       0.37420064       0.00000000 </v>
    <v>      -0.00000000      -0.00000000       0.28625624 </v>
   </varray>
  </crystal>
  <varray name="positions" >
   <v>      -0.00000000       0.00000000      -0.00000000 </v>
   <v>       0.33333300       0.66666700       0.50000000 </v>
   <v>       0.66666700       0.33333300       0.50000000 </v>
  </varray>
 </structure>
</modeling>
